# vtk DataFile Version 3.0
Sphere Mesh with Geometry
ASCII
DATASET POLYDATA
POINTS 10242 float
-1 0 0
-0.999402 -0.0345915 0
-0.999402 0.0345915 0
-0.999229 -0.0206401 -0.0333964
-0.999229 -0.0206401 0.0333964
-0.999229 0.0206401 -0.0333964
-0.999229 0.0206401 0.0333964
-0.997915 -0.0552311 -0.0333925
-0.997915 -0.0552311 0.0333925
-0.997915 0.0552311 -0.0333925
-0.997915 0.0552311 0.0333925
-0.997767 0 -0.0667981
-0.997767 0 0.0667981
-0.997607 -0.0691416 0
-0.997607 0.0691416 0
-0.996917 -0.0412484 -0.0667413
-0.996917 -0.0412484 0.0667413
-0.996917 0.0412484 -0.0667413
-0.996917 0.0412484 0.0667413
-0.995397 -0.0898328 -0.0333805
-0.995397 -0.0898328 0.0333805
-0.995397 0.0898328 -0.0333805
-0.995397 0.0898328 0.0333805
-0.994881 -0.0758623 -0.0667655
-0.994881 -0.0758623 0.0667655
-0.994881 0.0758623 -0.0667655
-0.994881 0.0758623 0.0667655
-0.994752 -0.0206402 -0.10021
-0.994752 -0.0206402 0.10021
-0.994752 0.0206402 -0.10021
-0.994752 0.0206402 0.10021
-0.994618 -0.103609 0
-0.994618 0.103609 0
-0.993068 -0.0617931 -0.0999833
-0.993068 -0.0617931 0.0999833
-0.993068 0.0617931 -0.0999833
-0.993068 0.0617931 0.0999833
-0.991689 -0.12425 -0.0333764
-0.991689 -0.12425 0.0333764
-0.991689 0.12425 -0.0333764
-0.991689 0.12425 0.0333764
-0.991648 -0.110385 -0.0667094
-0.991648 -0.110385 0.0667094
-0.991648 0.110385 -0.0667094
-0.991648 0.110385 0.0667094
-0.991046 0 -0.133523
-0.991046 0 0.133523
-0.990439 -0.137952 0
-0.990439 0.137952 0
-0.990313 -0.0963765 -0.0999554
-0.990313 -0.0963765 0.0999554
-0.990313 0.0963765 -0.0999554
-0.990313 0.0963765 0.0999554
-0.990206 -0.0411561 -0.13341
-0.990206 -0.0411561 0.13341
-0.990206 0.0411561 -0.13341
-0.990206 0.0411561 0.13341
-0.987688 -0.0822425 -0.133071
-0.987688 -0.0822425 0.133071
-0.987688 0.0822425 -0.133071
-0.987688 0.0822425 0.133071
-0.987169 -0.145079 -0.0666977
-0.987169 -0.145079 0.0666977
-0.987169 0.145079 -0.0666977
-0.987169 0.145079 0.0666977
-0.986732 -0.158898 -0.0333282
-0.986732 -0.158898 0.0333282
-0.986732 0.158898 -0.0333282
-0.986732 0.158898 0.0333282
-0.986311 -0.13107 -0.100061
-0.986311 -0.13107 0.100061
-0.986311 0.13107 -0.100061
-0.986311 0.13107 0.100061
-0.985728 -0.0206418 -0.167078
-0.985728 -0.0206418 0.167078
-0.985728 0.0206418 -0.167078
-0.985728 0.0206418 0.167078
-0.985074 -0.17213 0
-0.985074 0.17213 0
-0.984157 -0.116967 -0.133245
-0.984157 -0.116967 0.133245
-0.984157 0.116967 -0.133245
-0.984157 0.116967 0.133245
-0.984044 -0.0617953 -0.166851
-0.984044 -0.0617953 0.166851
-0.984044 0.0617953 -0.166851
-0.984044 0.0617953 0.166851
-0.981483 -0.179596 -0.0666044
-0.981483 -0.179596 0.0666044
-0.981483 0.179596 -0.0666044
-0.981483 0.179596 0.0666044
-0.981097 -0.165681 -0.0999958
-0.981097 -0.165681 0.0999958
-0.981097 0.165681 -0.0999958
-0.981097 0.165681 0.0999958
-0.980785 -0.102565 -0.165954
-0.980785 -0.102565 0.165954
-0.980785 0.102565 -0.165954
-0.980785 0.102565 0.165954
-0.980638 -0.192973 -0.0333236
-0.980638 -0.192973 0.0333236
-0.980638 0.192973 -0.0333236
-0.980638 0.192973 0.0333236
-0.979686 0 -0.200538
-0.979686 0 0.200538
-0.979426 -0.151549 -0.133256
-0.979426 -0.151549 0.133256
-0.979426 0.151549 -0.133256
-0.979426 0.151549 0.133256
-0.978852 -0.0412509 -0.200368
-0.978852 -0.0412509 0.200368
-0.978852 0.0412509 -0.200368
-0.978852 0.0412509 0.200368
-0.97853 -0.206103 0
-0.97853 0.206103 0
-0.976527 -0.137228 -0.166025
-0.976527 -0.137228 0.166025
-0.976527 0.137228 -0.166025
-0.976527 0.137228 0.166025
-0.976427 -0.0820588 -0.199641
-0.976427 -0.0820588 0.199641
-0.976427 0.0820588 -0.199641
-0.976427 0.0820588 0.199641
-0.9747 -0.200013 -0.0997764
-0.9747 -0.200013 0.0997764
-0.9747 0.200013 -0.0997764
-0.9747 0.200013 0.0997764
-0.974649 -0.213589 -0.0666257
-0.974649 -0.213589 0.0666257
-0.974649 0.213589 -0.0666257
-0.974649 0.213589 0.0666257
-0.973502 -0.185946 -0.133106
-0.973502 -0.185946 0.133106
-0.973502 0.185946 -0.133106
-0.973502 0.185946 0.133106
-0.97335 -0.226892 -0.0333096
-0.97335 -0.226892 0.0333096
-0.97335 0.226892 -0.0333096
-0.97335 0.226892 0.0333096
-0.97237 -0.122729 -0.19858
-0.97237 -0.122729 0.19858
-0.97237 0.122729 -0.19858
-0.97237 0.122729 0.19858
-0.972121 -0.0206417 -0.23357
-0.972121 -0.0206417 0.23357
-0.972121 0.0206417 -0.23357
-0.972121 0.0206417 0.23357
-0.971058 -0.171797 -0.165925
-0.971058 -0.171797 0.165925
-0.971058 0.171797 -0.165925
-0.971058 0.171797 0.165925
-0.970815 -0.239828 0
-0.970815 0.239828 0
-0.970505 -0.0614236 -0.233124
-0.970505 -0.0614236 0.233124
-0.970505 0.0614236 -0.233124
-0.970505 0.0614236 0.233124
-0.967371 -0.157351 -0.19858
-0.967371 -0.157351 0.19858
-0.967371 0.157351 -0.19858
-0.967371 0.157351 0.19858
-0.967277 -0.102196 -0.232233
-0.967277 -0.102196 0.232233
-0.967277 0.102196 -0.232233
-0.967277 0.102196 0.232233
-0.967138 -0.233871 -0.0997436
-0.967138 -0.233871 0.0997436
-0.967138 0.233871 -0.0997436
-0.967138 0.233871 0.0997436
-0.966643 -0.247326 -0.0665669
-0.966643 -0.247326 0.0665669
-0.966643 0.247326 -0.0665669
-0.966643 0.247326 0.0665669
-0.966393 -0.220117 -0.132792
-0.966393 -0.220117 0.132792
-0.966393 0.220117 -0.132792
-0.966393 0.220117 0.132792
-0.964909 -0.260463 -0.0333048
-0.964909 -0.260463 0.0333048
-0.964909 0.260463 -0.0333048
-0.964909 0.260463 0.0333048
-0.964409 -0.206081 -0.165671
-0.964409 -0.206081 0.165671
-0.964409 0.206081 -0.165671
-0.964409 0.206081 0.165671
-0.963861 0 -0.266405
-0.963861 0 0.266405
-0.963059 -0.0407845 -0.266183
-0.963059 -0.0407845 0.266183
-0.963059 0.0407845 -0.266183
-0.963059 0.0407845 0.266183
-0.962455 -0.142705 -0.230901
-0.962455 -0.142705 0.230901
-0.962455 0.142705 -0.230901
-0.962455 0.142705 0.230901
-0.961938 -0.273267 0
-0.961938 0.273267 0
-0.961188 -0.19178 -0.198337
-0.961188 -0.19178 0.198337
-0.961188 0.19178 -0.198337
-0.961188 0.19178 0.198337
-0.960655 -0.0815011 -0.265518
-0.960655 -0.0815011 0.265518
-0.960655 0.0815011 -0.265518
-0.960655 0.0815011 0.265518
-0.958014 -0.268847 -0.0996497
-0.958014 -0.268847 0.0996497
-0.958014 0.268847 -0.0996497
-0.958014 0.268847 0.0996497
-0.957732 -0.25519 -0.132768
-0.957732 -0.25519 0.132768
-0.957732 0.25519 -0.132768
-0.957732 0.25519 0.132768
-0.957048 -0.282237 -0.0663481
-0.957048 -0.282237 0.0663481
-0.957048 0.282237 -0.0663481
-0.957048 0.282237 0.0663481
-0.956736 -0.177234 -0.230749
-0.956736 -0.177234 0.230749
-0.956736 0.177234 -0.230749
-0.956736 0.177234 0.230749
-0.956652 -0.122082 -0.264412
-0.956652 -0.122082 0.264412
-0.956652 0.122082 -0.264412
-0.956652 0.122082 0.264412
-0.956201 -0.241032 -0.16608
-0.956201 -0.241032 0.16608
-0.956201 0.241032 -0.16608
-0.956201 0.241032 0.16608
-0.954845 -0.295262 -0.0330481
-0.954845 -0.295262 0.0330481
-0.954845 0.295262 -0.0330481
-0.954845 0.295262 0.0330481
-0.953549 -0.0206685 -0.300528
-0.953549 -0.0206685 0.300528
-0.953549 0.0206685 -0.300528
-0.953549 0.0206685 0.300528
-0.953424 -0.226811 -0.198844
-0.953424 -0.226811 0.198844
-0.953424 0.226811 -0.198844
-0.953424 0.226811 0.198844
-0.951932 -0.0614529 -0.30008
-0.951932 -0.0614529 0.30008
-0.951932 0.0614529 -0.30008
-0.951932 0.0614529 0.30008
-0.95191 -0.306378 0
-0.95191 0.306378 0
-0.951057 -0.16246 -0.262866
-0.951057 -0.16246 0.262866
-0.951057 0.16246 -0.262866
-0.951057 0.16246 0.262866
-0.949405 -0.212293 -0.231436
-0.949405 -0.212293 0.231436
-0.949405 0.212293 -0.231436
-0.949405 0.212293 0.231436
-0.948702 -0.102238 -0.299185
-0.948702 -0.102238 0.299185
-0.948702 0.102238 -0.299185
-0.948702 0.102238 0.299185
-0.947822 -0.289929 -0.13257
-0.947822 -0.289929 0.13257
-0.947822 0.289929 -0.13257
-0.947822 0.289929 0.13257
-0.94762 -0.303549 -0.0993701
-0.94762 -0.303549 0.0993701
-0.94762 0.303549 -0.0993701
-0.94762 0.303549 0.0993701
-0.946748 -0.275921 -0.165941
-0.946748 -0.275921 0.165941
-0.946748 0.275921 -0.165941
-0.946748 0.275921 0.165941
-0.946198 -0.316778 -0.0660424
-0.946198 -0.316778 0.0660424
-0.946198 0.316778 -0.0660424
-0.946198 0.316778 0.0660424
-0.944433 -0.26155 -0.199094
-0.944433 -0.26155 0.199094
-0.944433 0.26155 -0.199094
-0.944433 0.26155 0.199094
-0.944158 -0.197584 -0.263677
-0.944158 -0.197584 0.263677
-0.944158 0.197584 -0.263677
-0.944158 0.197584 0.263677
-0.944047 -0.328151 -0.0330414
-0.944047 -0.328151 0.0330414
-0.944047 0.328151 -0.0330414
-0.944047 0.328151 0.0330414
-0.943879 -0.142749 -0.297852
-0.943879 -0.142749 0.297852
-0.943879 0.142749 -0.297852
-0.943879 0.142749 0.297852
-0.942422 0 -0.334425
-0.942422 0 0.334425
-0.941618 -0.041302 -0.33414
-0.941618 -0.041302 0.33414
-0.941618 0.041302 -0.33414
-0.941618 0.041302 0.33414
-0.940847 -0.247162 -0.231772
-0.940847 -0.247162 0.231772
-0.940847 0.247162 -0.231772
-0.940847 0.247162 0.231772
-0.940742 -0.339123 0
-0.940742 0.339123 0
-0.93916 -0.0821198 -0.33352
-0.93916 -0.0821198 0.33352
-0.93916 0.0821198 -0.33352
-0.93916 0.0821198 0.33352
-0.938191 -0.181965 -0.294425
-0.938191 -0.181965 0.294425
-0.938191 0.181965 -0.294425
-0.938191 0.181965 0.294425
-0.936674 -0.324291 -0.132199
-0.936674 -0.324291 0.132199
-0.936674 0.324291 -0.132199
-0.936674 0.324291 0.132199
-0.93605 -0.232455 -0.264151
-0.93605 -0.232455 0.264151
-0.93605 0.232455 -0.264151
-0.93605 0.232455 0.264151
-0.936027 -0.310525 -0.165615
-0.936027 -0.310525 0.165615
-0.936027 0.310525 -0.165615
-0.936027 0.310525 0.165615
-0.936012 -0.337778 -0.0989293
-0.936012 -0.337778 0.0989293
-0.936012 0.337778 -0.0989293
-0.936012 0.337778 0.0989293
-0.93513 -0.1228 -0.332342
-0.93513 -0.1228 0.332342
-0.93513 0.1228 -0.332342
-0.93513 0.1228 0.332342
-0.93462 -0.34946 -0.0660551
-0.93462 -0.34946 0.0660551
-0.93462 0.34946 -0.0660551
-0.93462 0.34946 0.0660551
-0.93417 -0.296273 -0.198871
-0.93417 -0.296273 0.198871
-0.93417 0.296273 -0.198871
-0.93417 0.296273 0.198871
-0.932091 -0.360716 -0.0330211
-0.932091 -0.360716 0.0330211
-0.932091 0.360716 -0.0330211
-0.932091 0.360716 0.0330211
-0.931106 -0.281637 -0.23178
-0.931106 -0.281637 0.23178
-0.931106 0.281637 -0.23178
-0.931106 0.281637 0.23178
[...]
CELL_DATA 5120
VECTORS elem_normals float
-0.499678 0.0219394 0.865934
-0.43852 0.0219592 0.898453
-0.479132 0.087671 0.873354
-0.472867 0.0438972 0.88004
-0.37507 0.0220164 0.926735
-0.31 0.0220345 0.950481
-0.352559 0.087975 0.931645
-0.346187 0.0440494 0.937131
-0.4561 0.153126 0.876656
-0.393 0.15341 0.906651
-0.430889 0.217636 0.875768
-0.427046 0.174883 0.887157
-0.410521 0.0439746 0.91079
-0.387791 0.109897 0.915173
-0.451134 0.109688 0.88569
-0.416862 0.0879319 0.904706
-0.242449 0.0222095 0.96991
-0.174707 0.022222 0.98437
-0.215873 0.0887349 0.972381
-0.211199 0.0444299 0.976433
-0.105921 0.022257 0.994125
-0.0368294 0.0222677 0.999073
-0.0780284 0.0889211 0.992978
-0.0736585 0.0445232 0.996289
-0.187984 0.154935 0.969875
-0.118947 0.155109 0.98071
-0.159132 0.220126 0.962404
-0.155493 0.176884 0.971871
-0.142775 0.0444778 0.988755
-0.11483 0.111113 0.987151
-0.183922 0.110985 0.976655
-0.14731 0.0889383 0.985084
-0.402975 0.281946 0.870699
-0.336631 0.284125 0.897749
-0.373562 0.343977 0.86147
-0.371389 0.303623 0.87743
-0.268355 0.284978 0.920203
-0.19888 0.284438 0.937839
-0.237044 0.346194 0.907723
-0.234969 0.305479 0.922752
-0.342156 0.404493 0.848124
-0.273922 0.405884 0.871908
-0.30913 0.46286 0.830782
-0.30868 0.424795 0.851038
-0.303975 0.305236 0.902458
-0.27257 0.36634 0.889663
-0.340946 0.365126 0.866279
-0.30611 0.345882 0.88694
-0.279386 0.0442442 0.959159
-0.252695 0.110747 0.961187
-0.321948 0.110192 0.940323
-0.284945 0.0884766 0.954452
-0.224694 0.176907 0.958236
-0.195749 0.242011 0.950322
-0.265338 0.24267 0.933117
-0.22881 0.220736 0.948115
-0.362402 0.175649 0.915321
-0.333775 0.241936 0.911077
-0.400295 0.239879 0.884433
-0.365835 0.21936 0.904459
-0.257442 0.154966 0.953787
-0.298087 0.220731 0.928667
-0.326564 0.154351 0.932487
-0.294309 0.176851 0.939205
0.0368294 0.0222677 0.999073
0.105921 0.022257 0.994125
0.0780284 0.0889211 0.992978
0.0736585 0.0445232 0.996289
0.174707 0.022222 0.98437
0.242449 0.0222095 0.96991
0.215873 0.0887349 0.972381
0.211199 0.0444299 0.976433
0.118947 0.155109 0.98071
0.187984 0.154935 0.969875
0.159132 0.220126 0.962404
0.155493 0.176884 0.971871
0.142775 0.0444778 0.988755
0.183922 0.110985 0.976655
0.11483 0.111113 0.987151
0.14731 0.0889383 0.985084
0.31 0.0220345 0.950481
0.37507 0.0220164 0.926735
0.352559 0.087975 0.931645
0.346187 0.0440494 0.937131
0.43852 0.0219592 0.898453
0.499678 0.0219394 0.865934
0.479132 0.087671 0.873354
0.472867 0.0438972 0.88004
0.393 0.15341 0.906651
0.4561 0.153126 0.876656
0.430889 0.217636 0.875768
0.427046 0.174883 0.887157
0.410521 0.0439746 0.91079
0.451134 0.109688 0.88569
0.387791 0.109897 0.915173
0.416862 0.0879319 0.904706
0.19888 0.284438 0.937839
0.268355 0.284978 0.920203
0.237044 0.346194 0.907723
0.234969 0.305479 0.922752
0.336631 0.284125 0.897749
0.402975 0.281946 0.870699
0.373562 0.343977 0.86147
0.371389 0.303623 0.87743
0.273922 0.405884 0.871908
0.342156 0.404493 0.848124
0.30913 0.46286 0.830782
0.30868 0.424795 0.851038
0.303975 0.305236 0.902458
0.340946 0.365126 0.866279
0.27257 0.36634 0.889663
0.30611 0.345882 0.88694
0.279386 0.0442442 0.959159
0.321948 0.110192 0.940323
0.252695 0.110747 0.961187
0.284945 0.0884766 0.954452
0.362402 0.175649 0.915321
0.400295 0.239879 0.884433
0.333775 0.241936 0.911077
0.365835 0.21936 0.904459
0.224694 0.176907 0.958236
0.265338 0.24267 0.933117
0.195749 0.242011 0.950322
0.22881 0.220736 0.948115
0.326564 0.154351 0.932487
0.298087 0.220731 0.928667
0.257442 0.154966 0.953787
0.294309 0.176851 0.939205
-0.272301 0.522451 0.80802
-0.195894 0.532137 0.823684
-0.236235 0.575877 0.782661
-0.235021 0.543977 0.805515
-0.118097 0.538654 0.834209
-0.039747 0.54192 0.83949
-0.0803706 0.589142 0.804023
-0.079476 0.557072 0.826652
-0.198855 0.626659 0.753495
-0.120758 0.633415 0.764332
-0.160526 0.674237 0.720857
-0.16019 0.64535 0.746902
-0.157739 0.55214 0.818694
-0.120054 0.602827 0.788788
-0.198172 0.59614 0.778039
-0.1588 0.584235 0.795897
0.039747 0.54192 0.83949
0.118097 0.538654 0.834209
0.0803706 0.589142 0.804023
0.079476 0.557072 0.826652
0.195894 0.532137 0.823684
0.272301 0.522451 0.80802
0.236235 0.575877 0.782661
0.235021 0.543977 0.805515
0.120758 0.633415 0.764332
0.198855 0.626659 0.753495
0.160526 0.674237 0.720857
0.16019 0.64535 0.746902
0.157739 0.55214 0.818694
0.198172 0.59614 0.778039
0.120054 0.602827 0.788788
0.1588 0.584235 0.795897
-0.120888 0.719227 0.684177
-0.0404414 0.723863 0.688757
-0.0810303 0.760002 0.64485
-0.0808593 0.735024 0.673202
0.0404414 0.723863 0.688757
0.120888 0.719227 0.684177
0.0810303 0.760002 0.64485
0.0808593 0.735024 0.673202
-0.0406121 0.797211 0.602334
0.0406121 0.797211 0.602334
-0 0.830435 0.557116
1.61331e-15 0.809012 0.587792
6.10797e-16 0.737356 0.675505
0.040613 0.773925 0.631974
-0.040613 0.773925 0.631974
1.61143e-15 0.76243 0.647071
1.62707e-15 0.55874 0.829343
0.0406438 0.606232 0.794249
-0.0406438 0.606232 0.794249
-1.36479e-15 0.590957 0.806703
0.0810798 0.650805 0.754903
0.120909 0.691935 0.711763
0.0404546 0.696571 0.716346
0.0808903 0.68041 0.728353
-0.0810798 0.650805 0.754903
-0.0404546 0.696571 0.716346
-0.120909 0.691935 0.711763
-0.0808903 0.68041 0.728353
0.0406448 0.637281 0.769559
-3.28742e-16 0.682742 0.730659
-0.0406448 0.637281 0.769559
0 0.653053 0.757312
-2.692e-15 0.044542 0.999008
0.0412074 0.111231 0.99294
-0.0412074 0.111231 0.99294
-9.90872e-18 0.0890967 0.996023
0.0821616 0.177529 0.98068
0.12236 0.24258 0.962384
0.0409608 0.244357 0.96882
0.0819146 0.221725 0.971662
-0.0821616 0.177529 0.98068
-0.0409608 0.244357 0.96882
-0.12236 0.24258 0.962384
-0.0819146 0.221725 0.971662
0.0412088 0.155822 0.986925
-1.65786e-16 0.22262 0.974905
-0.0412088 0.155822 0.986925
0 0.178279 0.98398
0.162322 0.307239 0.937686
0.200504 0.36901 0.90754
0.122173 0.375761 0.918628
0.161838 0.351044 0.922267
0.237452 0.42876 0.871654
0.272675 0.48574 0.830485
0.196244 0.495435 0.846187
0.235707 0.470479 0.850348
0.0812123 0.442037 0.893313
0.118342 0.501951 0.856762
0.0399618 0.505222 0.862064
0.0799234 0.483585 0.871641
0.199519 0.411972 0.889084
0.15831 0.47865 0.863616
0.121159 0.418659 0.900025
0.159836 0.436899 0.885196
-0.162322 0.307239 0.937686
-0.122173 0.375761 0.918628
-0.200504 0.36901 0.90754
-0.161838 0.351044 0.922267
-0.0812123 0.442037 0.893313
-0.0399618 0.505222 0.862064
-0.118342 0.501951 0.856762
-0.0799234 0.483585 0.871641
-0.237452 0.42876 0.871654
-0.196244 0.495435 0.846187
-0.272675 0.48574 0.830485
-0.235707 0.470479 0.850348
-0.121159 0.418659 0.900025
-0.15831 0.47865 0.863616
-0.199519 0.411972 0.889084
-0.159836 0.436899 0.885196
0.122391 0.28723 0.95001
0.0822339 0.355761 0.930952
0.0409801 0.289011 0.956448
0.0819599 0.311016 0.946864
0.0412537 0.422068 0.905625
-6.30179e-16 0.485262 0.874369
-0.0412537 0.422068 0.905625
0 0.44363 0.89621
-0.0409801 0.289011 0.956448
-0.0822339 0.355761 0.930952
-0.122391 0.28723 0.95001
-0.0819599 0.311016 0.946864
0.0412553 0.378668 0.924613
-0.0412553 0.378668 0.924613
0 0.311915 0.95011
5.86453e-16 0.356822 0.934172
-0.535176 0.0354987 0.843994
-0.514663 0.101243 0.851394
-0.580374 0.0761429 0.810782
-0.543894 0.0710272 0.836142
-0.491723 0.166733 0.854639
-0.466541 0.231254 0.853733
-0.535347 0.207782 0.818676
-0.498319 0.202107 0.843108
-0.622833 0.116654 0.773609
-0.600782 0.182788 0.778235
-0.662143 0.156541 0.732845
-0.629153 0.152133 0.762248
-0.522286 0.136866 0.841715
-0.565608 0.177817 0.805276
-0.588 0.111765 0.801102
-0.559139 0.142277 0.816774
-0.438911 0.295672 0.84849
-0.409518 0.357711 0.839248
-0.480207 0.338966 0.809014
-0.443278 0.331082 0.833
-0.378169 0.418248 0.825867
-0.34516 0.476622 0.808514
-0.4178 0.460841 0.782987
-0.38072 0.452312 0.806515
-0.519045 0.380733 0.765268
-0.488016 0.442057 0.752613
-0.555051 0.420484 0.717713
-0.521174 0.414799 0.745869
-0.412913 0.392615 0.821801
-0.452354 0.435012 0.77855
-0.483552 0.373828 0.791473
-0.450015 0.400849 0.798002
-0.698648 0.196462 0.687964
-0.675597 0.264334 0.688256
-0.731273 0.234811 0.640393
-0.702472 0.232079 0.67281
-0.649087 0.331061 0.684897
-0.619363 0.395919 0.677966
-0.6791 0.369069 0.634517
-0.649768 0.36568 0.666393
-0.760404 0.272247 0.589633
-0.734763 0.339771 0.587093
-0.785753 0.308331 0.536213
-0.760992 0.307061 0.571494
-0.677803 0.299631 0.671419
-0.707581 0.337524 0.620811
-0.733561 0.270138 0.623629
-0.706959 0.302705 0.639202
-0.471884 0.267224 0.840189
-0.512966 0.310382 0.80033
-0.540697 0.243752 0.805129
-0.508993 0.274041 0.815982
-0.551579 0.352004 0.75621
-0.587332 0.391582 0.708311
-0.617342 0.326885 0.715566
-0.585967 0.357158 0.727379
-0.606154 0.218749 0.764674
-0.644156 0.260271 0.719251
-0.667519 0.192498 0.71928
-0.639877 0.224048 0.735092
-0.548828 0.316505 0.773701
-0.614592 0.291385 0.733056
-0.576309 0.249745 0.778136
-0.580461 0.286151 0.762354
-0.308331 0.536213 0.785753
-0.272247 0.589633 0.760404
-0.339771 0.587093 0.734763
-0.307061 0.571494 0.760992
-0.234811 0.640393 0.731273
-0.196462 0.687964 0.698648
-0.264334 0.688256 0.675597
-0.232079 0.67281 0.702472
-0.369069 0.634517 0.6791
-0.331061 0.684897 0.649087
-0.395919 0.677966 0.619363
-0.36568 0.666393 0.649768
-0.270138 0.623629 0.733561
-0.299631 0.671419 0.677803
-0.337524 0.620811 0.707581
-0.302705 0.639202 0.706959
-0.156541 0.732845 0.662143
-0.116654 0.773609 0.622833
-0.182788 0.778235 0.600782
-0.152133 0.762248 0.629153
-0.0761429 0.810782 0.580374
-0.0354987 0.843994 0.535176
-0.101243 0.851394 0.514663
-0.0710272 0.836142 0.543894
-0.207782 0.818676 0.535347
-0.166733 0.854639 0.491723
-0.231254 0.853733 0.466541
-0.202107 0.843108 0.498319
-0.111765 0.801102 0.588
-0.136866 0.841715 0.522286
-0.177817 0.805276 0.565608
-0.142277 0.816774 0.559139
-0.420484 0.717713 0.555051
-0.380733 0.765268 0.519045
-0.442057 0.752613 0.488016
-0.414799 0.745869 0.521174
-0.338966 0.809014 0.480207
-0.295672 0.84849 0.438911
-0.357711 0.839248 0.409518
-0.331082 0.833 0.443278
-0.460841 0.782987 0.4178
-0.418248 0.825867 0.378169
-0.476622 0.808514 0.34516
-0.452312 0.806515 0.38072
-0.373828 0.791473 0.483552
-0.392615 0.821801 0.412913
-0.435012 0.77855 0.452354
-0.400849 0.798002 0.450015
-0.192498 0.71928 0.667519
-0.218749 0.764674 0.606154
-0.260271 0.719251 0.644156
-0.224048 0.735092 0.639877
-0.243752 0.805129 0.540697
-0.267224 0.840189 0.471884
-0.310382 0.80033 0.512966
-0.274041 0.815982 0.508993
-0.326885 0.715566 0.617342
-0.352004 0.75621 0.551579
-0.391582 0.708311 0.587332
-0.357158 0.727379 0.585967
-0.249745 0.778136 0.576309
-0.316505 0.773701 0.548828
-0.291385 0.733056 0.614592
-0.286151 0.762354 0.580461
-0.808514 0.34516 0.476622
-0.782987 0.4178 0.460841
-0.825867 0.378169 0.418248
-0.806515 0.38072 0.452312
-0.752613 0.488016 0.442057
-0.717713 0.555051 0.420484
-0.765268 0.519045 0.380733
-0.745869 0.521174 0.414799
-0.839248 0.409518 0.357711
-0.809014 0.480207 0.338966
-0.84849 0.438911 0.295672
-0.833 0.443278 0.331082
-0.77855 0.452354 0.435012
-0.791473 0.483552 0.373828
-0.821801 0.412913 0.392615
-0.798002 0.450015 0.400849
-0.677966 0.619363 0.395919
-0.634517 0.6791 0.369069
-0.684897 0.649087 0.331061
-0.666393 0.649768 0.36568
-0.587093 0.734763 0.339771
-0.536213 0.785753 0.308331
-0.589633 0.760404 0.272247
-0.571494 0.760992 0.307061
-0.688256 0.675597 0.264334
-0.640393 0.731273 0.234811
-0.687964 0.698648 0.196462
-0.67281 0.702472 0.232079
-0.620811 0.707581 0.337524
-0.623629 0.733561 0.270138
-0.671419 0.677803 0.299631
-0.639202 0.706959 0.302705
-0.853733 0.466541 0.231254
-0.818676 0.535347 0.207782
-0.854639 0.491723 0.166733
-0.843108 0.498319 0.202107
-0.778235 0.600782 0.182788
-0.732845 0.662143 0.156541
-0.773609 0.622833 0.116654
-0.762248 0.629153 0.152133
-0.851394 0.514663 0.101243
-0.810782 0.580374 0.0761429
-0.843994 0.535176 0.0354987
-0.836142 0.543894 0.0710272
-0.805276 0.565608 0.177817
-0.801102 0.588 0.111765
-0.841715 0.522286 0.136866
-0.816774 0.559139 0.142277
-0.708311 0.587332 0.391582
-0.715566 0.617342 0.326885
-0.75621 0.551579 0.352004
-0.727379 0.585967 0.357158
-0.719251 0.644156 0.260271
-0.71928 0.667519 0.192498
-0.764674 0.606154 0.218749
-0.735092 0.639877 0.224048
-0.80033 0.512966 0.310382
-0.805129 0.540697 0.243752
-0.840189 0.471884 0.267224
-0.815982 0.508993 0.274041
-0.733056 0.614592 0.291385
-0.778136 0.576309 0.249745
-0.773701 0.548828 0.316505
-0.762354 0.580461 0.286151
-0.344746 0.513268 0.785943
-0.376219 0.56418 0.734956
-0.417426 0.497505 0.760424
-0.379869 0.525544 0.761251
-0.40559 0.61167 0.679233
-0.432464 0.655145 0.619484
-0.47659 0.593058 0.648956
-0.438682 0.620618 0.649916
-0.487751 0.478729 0.730012
-0.517551 0.526782 0.674271
-0.554824 0.457162 0.695107
-0.520597 0.488078 0.700542
-0.410435 0.574953 0.707794
-0.481365 0.556246 0.677405
-0.451643 0.508276 0.733263
-0.448298 0.547081 0.706917
-0.457162 0.695107 0.554824
-0.478729 0.730012 0.487751
-0.526782 0.674271 0.517551
-0.488078 0.700542 0.520597
-0.497505 0.760424 0.417426
-0.513268 0.785943 0.344746
-0.56418 0.734956 0.376219
-0.525544 0.761251 0.379869
-0.593058 0.648956 0.47659
-0.61167 0.679233 0.40559
-0.655145 0.619484 0.432464
-0.620618 0.649916 0.438682
-0.508276 0.733263 0.451643
-0.574953 0.707794 0.410435
-0.556246 0.677405 0.481365
-0.547081 0.706917 0.448298
-0.619484 0.432464 0.655145
-0.648956 0.47659 0.593058
-0.679233 0.40559 0.61167
-0.649916 0.438682 0.620618
-0.674271 0.517551 0.526782
-0.695107 0.554824 0.457162
-0.730012 0.487751 0.478729
-0.700542 0.520597 0.488078
-0.734956 0.376219 0.56418
-0.760424 0.417426 0.497505
-0.785943 0.344746 0.513268
-0.761251 0.379869 0.525544
-0.677405 0.481365 0.556246
-0.733263 0.451643 0.508276
-0.707794 0.410435 0.574953
-0.706917 0.448298 0.547081
-0.464748 0.66278 0.587139
-0.53438 0.641941 0.549864
-0.508884 0.600687 0.616614
-0.503234 0.635848 0.585194
-0.600687 0.616614 0.508884
-0.66278 0.587139 0.464748
-0.641941 0.549864 0.53438
-0.635848 0.585194 0.503234
-0.549864 0.53438 0.641941
-0.616614 0.508884 0.600687
-0.587139 0.464748 0.66278
-0.585194 0.503234 0.635848
-0.571442 0.612697 0.545945
-0.612697 0.545945 0.571442
-0.545945 0.571442 0.612697
-0.57735 0.57735 0.57735
-0.830435 0.557116 -6.18895e-16
-0.797211 0.602334 0.0406121
-0.797211 0.602334 -0.0406121
-0.809012 0.587792 -5.62987e-16
-0.760002 0.64485 0.0810303
-0.719227 0.684177 0.120888
-0.723863 0.688757 0.0404414
-0.735024 0.673202 0.0808593
-0.760002 0.64485 -0.0810303
-0.723863 0.688757 -0.0404414
-0.719227 0.684177 -0.120888
-0.735024 0.673202 -0.0808593
-0.773925 0.631974 0.040613
-0.737356 0.675505 -3.26712e-16
-0.773925 0.631974 -0.040613
-0.76243 0.647071 0
-0.674237 0.720857 0.160526
-0.626659 0.753495 0.198855
-0.633415 0.764332 0.120758
-0.64535 0.746902 0.16019
-0.575877 0.782661 0.236235
-0.522451 0.80802 0.272301
-0.532137 0.823684 0.195894
-0.543977 0.805515 0.235021
-0.589142 0.804023 0.0803706
-0.538654 0.834209 0.118097
-0.54192 0.83949 0.039747
-0.557072 0.826652 0.079476
-0.59614 0.778039 0.198172
-0.55214 0.818694 0.157739
-0.602827 0.788788 0.120054
-0.584235 0.795897 0.1588
-0.674237 0.720857 -0.160526
-0.633415 0.764332 -0.120758
-0.626659 0.753495 -0.198855
-0.64535 0.746902 -0.16019
-0.589142 0.804023 -0.0803706
-0.54192 0.83949 -0.039747
-0.538654 0.834209 -0.118097
-0.557072 0.826652 -0.079476
-0.575877 0.782661 -0.236235
-0.532137 0.823684 -0.195894
-0.522451 0.80802 -0.272301
-0.543977 0.805515 -0.235021
-0.602827 0.788788 -0.120054
-0.55214 0.818694 -0.157739
-0.59614 0.778039 -0.198172
-0.584235 0.795897 -0.1588
-0.691935 0.711763 0.120909
-0.650805 0.754903 0.0810798
-0.696571 0.716346 0.0404546
-0.68041 0.728353 0.0808903
-0.606232 0.794249 0.0406438
-0.55874 0.829343 -5.94261e-16
-0.606232 0.794249 -0.0406438
-0.590957 0.806703 0
-0.696571 0.716346 -0.0404546
-0.650805 0.754903 -0.0810798
-0.691935 0.711763 -0.120909
-0.68041 0.728353 -0.0808903
-0.637281 0.769559 0.0406448
-0.637281 0.769559 -0.0406448
-0.682742 0.730659 0
-0.653053 0.757312 -5.77944e-16
-0.46286 0.830782 0.30913
-0.404493 0.848124 0.342156
-0.405884 0.871908 0.273922
-0.424795 0.851038 0.30868
-0.343977 0.86147 0.373562
-0.281946 0.870699 0.402975
-0.284125 0.897749 0.336631
-0.303623 0.87743 0.371389
-0.346194 0.907723 0.237044
-0.284978 0.920203 0.268355
-0.284438 0.937839 0.19888
-0.305479 0.922752 0.234969
-0.365126 0.866279 0.340946
-0.305236 0.902458 0.303975
-0.36634 0.889663 0.27257
-0.345882 0.88694 0.30611
-0.217636 0.875768 0.430889
-0.153126 0.876656 0.4561
-0.15341 0.906651 0.393
-0.174883 0.887157 0.427046
-0.087671 0.873354 0.479132
-0.0219394 0.865934 0.499678
-0.0219592 0.898453 0.43852
-0.0438972 0.88004 0.472867
-0.087975 0.931645 0.352559
-0.0220164 0.926735 0.37507
-0.0220345 0.950481 0.31
-0.0440494 0.937131 0.346187
-0.109688 0.88569 0.451134
-0.0439746 0.91079 0.410521
-0.109897 0.915173 0.387791
-0.0879319 0.904706 0.416862
-0.220126 0.962404 0.159132
-0.154935 0.969875 0.187984
-0.155109 0.98071 0.118947
-0.176884 0.971871 0.155493
-0.0887349 0.972381 0.215873
-0.0222095 0.96991 0.242449
-0.022222 0.98437 0.174707
-0.0444299 0.976433 0.211199
-0.0889211 0.992978 0.0780284
-0.022257 0.994125 0.105921
-0.0222677 0.999073 0.0368294
-0.0445232 0.996289 0.0736585
-0.110985 0.976655 0.183922
-0.0444778 0.988755 0.142775
-0.111113 0.987151 0.11483
-0.0889383 0.985084 0.14731
-0.239879 0.884433 0.400295
-0.175649 0.915321 0.362402
-0.241936 0.911077 0.333775
-0.21936 0.904459 0.365835
-0.110192 0.940323 0.321948
-0.0442442 0.959159 0.279386
-0.110747 0.961187 0.252695
-0.0884766 0.954452 0.284945
-0.24267 0.933117 0.265338
-0.176907 0.958236 0.224694
-0.242011 0.950322 0.195749
-0.220736 0.948115 0.22881
-0.154351 0.932487 0.326564
-0.154966 0.953787 0.257442
-0.220731 0.928667 0.298087
-0.176851 0.939205 0.294309
-0.46286 0.830782 -0.30913
-0.405884 0.871908 -0.273922
-0.404493 0.848124 -0.342156
-0.424795 0.851038 -0.30868
-0.346194 0.907723 -0.237044
-0.284438 0.937839 -0.19888
-0.284978 0.920203 -0.268355
-0.305479 0.922752 -0.234969
-0.343977 0.86147 -0.373562
-0.284125 0.897749 -0.336631
-0.281946 0.870699 -0.402975
-0.303623 0.87743 -0.371389
-0.36634 0.889663 -0.27257
-0.305236 0.902458 -0.303975
-0.365126 0.866279 -0.340946
-0.345882 0.88694 -0.30611
-0.220126 0.962404 -0.159132
-0.155109 0.98071 -0.118947
-0.154935 0.969875 -0.187984
-0.176884 0.971871 -0.155493
-0.0889211 0.992978 -0.0780284
-0.0222677 0.999073 -0.0368294
-0.022257 0.994125 -0.105921
-0.0445232 0.996289 -0.0736585
-0.0887349 0.972381 -0.215873
-0.022222 0.98437 -0.174707
-0.0222095 0.96991 -0.242449
-0.0444299 0.976433 -0.211199
-0.111113 0.987151 -0.11483
-0.0444778 0.988755 -0.142775
-0.110985 0.976655 -0.183922
-0.0889383 0.985084 -0.14731
-0.217636 0.875768 -0.430889
-0.15341 0.906651 -0.393
-0.153126 0.876656 -0.4561
-0.174883 0.887157 -0.427046
-0.087975 0.931645 -0.352559
-0.0220345 0.950481 -0.31
-0.0220164 0.926735 -0.37507
-0.0440494 0.937131 -0.346187
-0.087671 0.873354 -0.479132
-0.0219592 0.898453 -0.43852
-0.0219394 0.865934 -0.499678
-0.0438972 0.88004 -0.472867
-0.109897 0.915173 -0.387791
-0.0439746 0.91079 -0.410521
-0.109688 0.88569 -0.451134
-0.0879319 0.904706 -0.416862
-0.242011 0.950322 -0.195749
-0.176907 0.958236 -0.224694
-0.24267 0.933117 -0.265338
-0.220736 0.948115 -0.22881
-0.110747 0.961187 -0.252695
-0.0442442 0.959159 -0.279386
-0.110192 0.940323 -0.321948
-0.0884766 0.954452 -0.284945
-0.241936 0.911077 -0.333775
-0.175649 0.915321 -0.362402
-0.239879 0.884433 -0.400295
-0.21936 0.904459 -0.365835
-0.154966 0.953787 -0.257442
-0.154351 0.932487 -0.326564
-0.220731 0.928667 -0.298087
-0.176851 0.939205 -0.294309
-0.48574 0.830485 0.272675
-0.42876 0.871654 0.237452
-0.495435 0.846187 0.196244
-0.470479 0.850348 0.235707
-0.36901 0.90754 0.200504
-0.307239 0.937686 0.162322
-0.375761 0.918628 0.122173
-0.351044 0.922267 0.161838
-0.501951 0.856762 0.118342
-0.442037 0.893313 0.0812123
-0.505222 0.862064 0.0399618
-0.483585 0.871641 0.0799234
-0.411972 0.889084 0.199519
-0.418659 0.900025 0.121159
-0.47865 0.863616 0.15831