# vtk DataFile Version 3.0
Sphere Mesh with Geometry
ASCII
DATASET POLYDATA
POINTS 162 float
-1 0 0
-0.961938 -0.273267 0
-0.961938 0.273267 0
-0.951057 -0.16246 -0.262866
-0.951057 -0.16246 0.262866
-0.951057 0.16246 -0.262866
-0.951057 0.16246 0.262866
-0.862668 -0.433889 -0.259892
-0.862668 -0.433889 0.259892
-0.862668 0.433889 -0.259892
-0.862668 0.433889 0.259892
-0.850651 -0.525731 0
-0.850651 0 -0.525731
-0.850651 0 0.525731
-0.850651 0.525731 0
-0.809017 -0.309017 -0.5
-0.809017 -0.309017 0.5
-0.809017 0.309017 -0.5
-0.809017 0.309017 0.5
-0.702046 -0.69378 -0.160622
-0.702046 -0.69378 0.160622
-0.702046 0.69378 -0.160622
-0.702046 0.69378 0.160622
-0.69378 -0.160622 -0.702046
-0.69378 -0.160622 0.702046
-0.69378 0.160622 -0.702046
-0.69378 0.160622 0.702046
-0.688191 -0.587785 -0.425325
-0.688191 -0.587785 0.425325
-0.688191 0.587785 -0.425325
-0.688191 0.587785 0.425325
-0.587785 -0.425325 -0.688191
-0.587785 -0.425325 0.688191
-0.587785 0.425325 -0.688191
-0.587785 0.425325 0.688191
-0.525731 -0.850651 0
-0.525731 0 -0.850651
-0.525731 0 0.850651
-0.525731 0.850651 0
-0.5 -0.809017 -0.309017
-0.5 -0.809017 0.309017
-0.5 0.809017 -0.309017
-0.5 0.809017 0.309017
-0.433889 -0.259892 -0.862668
-0.433889 -0.259892 0.862668
-0.433889 0.259892 -0.862668
-0.433889 0.259892 0.862668
-0.425325 -0.688191 -0.587785
-0.425325 -0.688191 0.587785
-0.425325 0.688191 -0.587785
-0.425325 0.688191 0.587785
-0.309017 -0.5 -0.809017
-0.309017 -0.5 0.809017
-0.309017 0.5 -0.809017
-0.309017 0.5 0.809017
-0.273267 0 -0.961938
-0.273267 0 0.961938
-0.262866 -0.951057 -0.16246
-0.262866 -0.951057 0.16246
-0.262866 0.951057 -0.16246
-0.262866 0.951057 0.16246
-0.259892 -0.862668 -0.433889
-0.259892 -0.862668 0.433889
-0.259892 0.862668 -0.433889
-0.259892 0.862668 0.433889
-0.16246 -0.262866 -0.951057
-0.16246 -0.262866 0.951057
-0.16246 0.262866 -0.951057
-0.16246 0.262866 0.951057
-0.160622 -0.702046 -0.69378
-0.160622 -0.702046 0.69378
-0.160622 0.702046 -0.69378
-0.160622 0.702046 0.69378
0 -1 0
0 -0.961938 -0.273267
0 -0.961938 0.273267
0 -0.850651 -0.525731
0 -0.850651 0.525731
0 -0.525731 -0.850651
0 -0.525731 0.850651
0 0 -1
0 0 1
0 0.525731 -0.850651
0 0.525731 0.850651
0 0.850651 -0.525731
0 0.850651 0.525731
0 0.961938 -0.273267
0 0.961938 0.273267
0 1 0
0.160622 -0.702046 -0.69378
0.160622 -0.702046 0.69378
0.160622 0.702046 -0.69378
0.160622 0.702046 0.69378
0.16246 -0.262866 -0.951057
0.16246 -0.262866 0.951057
0.16246 0.262866 -0.951057
0.16246 0.262866 0.951057
0.259892 -0.862668 -0.433889
0.259892 -0.862668 0.433889
0.259892 0.862668 -0.433889
0.259892 0.862668 0.433889
0.262866 -0.951057 -0.16246
0.262866 -0.951057 0.16246
0.262866 0.951057 -0.16246
0.262866 0.951057 0.16246
0.273267 0 -0.961938
0.273267 0 0.961938
0.309017 -0.5 -0.809017
0.309017 -0.5 0.809017
0.309017 0.5 -0.809017
0.309017 0.5 0.809017
0.425325 -0.688191 -0.587785
0.425325 -0.688191 0.587785
0.425325 0.688191 -0.587785
0.425325 0.688191 0.587785
0.433889 -0.259892 -0.862668
0.433889 -0.259892 0.862668
0.433889 0.259892 -0.862668
0.433889 0.259892 0.862668
0.5 -0.809017 -0.309017
0.5 -0.809017 0.309017
0.5 0.809017 -0.309017
0.5 0.809017 0.309017
0.525731 -0.850651 0
0.525731 0 -0.850651
0.525731 0 0.850651
0.525731 0.850651 0
0.587785 -0.425325 -0.688191
0.587785 -0.425325 0.688191
0.587785 0.425325 -0.688191
0.587785 0.425325 0.688191
0.688191 -0.587785 -0.425325
0.688191 -0.587785 0.425325
0.688191 0.587785 -0.425325
0.688191 0.587785 0.425325
0.69378 -0.160622 -0.702046
0.69378 -0.160622 0.702046
0.69378 0.160622 -0.702046
0.69378 0.160622 0.702046
0.702046 -0.69378 -0.160622
0.702046 -0.69378 0.160622
0.702046 0.69378 -0.160622
0.702046 0.69378 0.160622
0.809017 -0.309017 -0.5
0.809017 -0.309017 0.5
0.809017 0.309017 -0.5
0.809017 0.309017 0.5
0.850651 -0.525731 0
0.850651 0 -0.525731
0.850651 0 0.525731
0.850651 0.525731 0
0.862668 -0.433889 -0.259892
0.862668 -0.433889 0.259892
0.862668 0.433889 -0.259892
0.862668 0.433889 0.259892
0.951057 -0.16246 -0.262866
0.951057 -0.16246 0.262866
0.951057 0.16246 -0.262866
0.951057 0.16246 0.262866
0.961938 -0.273267 0
0.961938 0.273267 0
1 0 0
POLYGONS 80 320
3 37 81 54
3 81 125 110
3 54 110 85
3 81 110 54
3 37 54 18
3 54 85 42
3 18 42 14
3 54 42 18
3 14 42 41
3 42 85 88
3 41 88 84
3 42 88 41
3 85 122 88
3 122 150 121
3 88 121 84
3 122 121 88
3 85 110 122
3 110 125 146
3 122 146 150
3 110 146 122
3 150 146 161
3 146 125 144
3 161 144 147
3 146 144 161
3 150 161 145
3 161 147 143
3 145 143 124
3 161 143 145
3 84 121 109
3 121 150 145
3 109 145 124
3 121 145 109
3 84 109 53
3 109 124 80
3 53 80 36
3 109 80 53
3 36 80 51
3 80 124 107
3 51 107 76
3 80 107 51
3 76 107 119
3 107 124 143
3 119 143 147
3 107 143 119
3 76 119 73
3 119 147 120
3 73 120 77
3 119 120 73
3 76 73 39
3 73 77 40
3 39 40 11
3 73 40 39
3 11 40 16
3 40 77 52
3 16 52 37
3 40 52 16
3 37 52 81
3 52 77 108
3 81 108 125
3 52 108 81
3 77 120 108
3 120 147 144
3 108 144 125
3 120 144 108
3 14 0 18
3 0 11 16
3 18 16 37
3 0 16 18
3 14 17 0
3 17 36 15
3 0 15 11
3 17 15 0
3 14 41 17
3 41 84 53
3 17 53 36
3 41 53 17
3 76 39 51
3 39 11 15
3 51 15 36
3 39 15 51
CELL_DATA 80
VECTORS elem_normals float
-0.294407 0.176784 0.939187
0.294407 0.176784 0.939187
-0 0.653145 0.757233
-3.92162e-17 0.356822 0.934172
-0.580449 0.286042 0.762403
-0.286042 0.762403 0.580449
-0.762403 0.580449 0.286042
-0.57735 0.57735 0.57735
-0.653145 0.757233 1.41203e-16
-0.176784 0.939187 0.294407
-0.176784 0.939187 -0.294407
-0.356822 0.934172 -9.0547e-17
0.176784 0.939187 0.294407
0.653145 0.757233 6.51234e-17
0.176784 0.939187 -0.294407
0.356822 0.934172 0
0.286042 0.762403 0.580449
0.580449 0.286042 0.762403
0.762403 0.580449 0.286042
0.57735 0.57735 0.57735
0.939187 0.294407 0.176784
0.757233 6.51234e-17 0.653145
0.939187 -0.294407 0.176784
0.934172 0 0.356822
0.939187 0.294407 -0.176784
0.939187 -0.294407 -0.176784
0.757233 0 -0.653145
0.934172 -3.92162e-17 -0.356822
0.286042 0.762403 -0.580449
0.762403 0.580449 -0.286042
0.580449 0.286042 -0.762403
0.57735 0.57735 -0.57735
1.41203e-16 0.653145 -0.757233
0.294407 0.176784 -0.939187
-0.294407 0.176784 -0.939187
-9.0547e-17 0.356822 -0.934172
-0.294407 -0.176784 -0.939187
0.294407 -0.176784 -0.939187
0 -0.653145 -0.757233
-3.92162e-17 -0.356822 -0.934172
0.286042 -0.762403 -0.580449
0.580449 -0.286042 -0.762403
0.762403 -0.580449 -0.286042
0.57735 -0.57735 -0.57735
0.176784 -0.939187 -0.294407
0.653145 -0.757233 -6.51234e-17
0.176784 -0.939187 0.294407
0.356822 -0.934172 0
-0.176784 -0.939187 -0.294407
-0.176784 -0.939187 0.294407
-0.653145 -0.757233 0
-0.356822 -0.934172 3.92162e-17
-0.762403 -0.580449 0.286042
-0.286042 -0.762403 0.580449
-0.580449 -0.286042 0.762403
-0.57735 -0.57735 0.57735
-0.294407 -0.176784 0.939187
-6.51234e-17 -0.653145 0.757233
0.294407 -0.176784 0.939187
0 -0.356822 0.934172
0.286042 -0.762403 0.580449
0.762403 -0.580449 0.286042
0.580449 -0.286042 0.762403
0.57735 -0.57735 0.57735
-0.939187 0.294407 0.176784
-0.939187 -0.294407 0.176784
-0.757233 0 0.653145
-0.934172 -3.92162e-17 0.356822
-0.939187 0.294407 -0.176784
-0.757233 6.51234e-17 -0.653145
-0.939187 -0.294407 -0.176784
-0.934172 -0 -0.356822
-0.762403 0.580449 -0.286042
-0.286042 0.762403 -0.580449
-0.580449 0.286042 -0.762403
-0.57735 0.57735 -0.57735
-0.286042 -0.762403 -0.580449
-0.762403 -0.580449 -0.286042
-0.580449 -0.286042 -0.762403
-0.57735 -0.57735 -0.57735
SCALARS curvature float 1
LOOKUP_TABLE default
0.934959
0.934959
0.934959
0.924505
0.934959
0.934959
0.934959
0.924505
0.934959
0.934959
0.934959
0.924505
0.934959
0.934959
0.934959
0.924505
0.934959
0.934959
0.934959
0.924505
0.934959
0.934959
0.934959
0.924505
0.934959
0.934959
0.934959
0.924505
0.934959
0.934959
0.934959
0.924505
0.934959
0.934959
0.934959
0.924505
0.934959
0.934959
0.934959
0.924505
0.934959
0.934959
0.934959
0.924505
0.934959
0.934959
0.934959
0.924505
0.934959
0.934959
0.934959
0.924505
0.934959
0.934959
0.934959
0.924505
0.934959
0.934959
0.934959
0.924505
0.934959
0.934959
0.934959
0.924505
0.934959
0.934959
0.934959
0.924505
0.934959
0.934959
0.934959
0.924505
0.934959
0.934959
0.934959
0.924505
0.934959
0.934959
0.934959
0.924505
POINT_DATA 162
SCALARS node_curvature float 1
LOOKUP_TABLE default
0.931034
0.934959
0.934959
0.929252
0.929252
0.929252
0.929252
0.934959
0.934959
0.934959
0.934959
0.934959
0.929252
0.929252
0.934959
0.931034
0.931034
0.931034
0.931034
0.934959
0.934959
0.934959
0.934959
0.934959
0.934959
0.934959
0.934959
0.929252
0.929252
0.929252
0.929252
0.929252
0.929252
0.929252
0.929252
0.929252
0.934959
0.934959
0.929252
0.931034
0.931034
0.931034
0.931034
0.934959
0.934959
0.934959
0.934959
0.929252
0.929252
0.929252
0.929252
0.931034
0.931034
0.931034
0.931034
0.934959
0.934959
0.929252
0.929252
0.929252
0.929252
0.934959
0.934959
0.934959
0.934959
0.929252
0.929252
0.929252
0.929252
0.934959
0.934959
0.934959
0.934959
0.931034
0.934959
0.934959
0.934959
0.934959
0.929252
0.929252
0.931034
0.931034
0.929252
0.929252
0.934959
0.934959
0.934959
0.934959
0.931034
0.934959
0.934959
0.934959
0.934959
0.929252
0.929252
0.929252
0.929252
0.934959
0.934959
0.934959
0.934959
0.929252
0.929252
0.929252
0.929252
0.934959
0.934959
0.931034
0.931034
0.931034
0.931034
0.929252
0.929252
0.929252
0.929252
0.934959
0.934959
0.934959
0.934959
0.931034
0.931034
0.931034
0.931034
0.929252
0.934959
0.934959
0.929252
0.929252
0.929252
0.929252
0.929252
0.929252
0.929252
0.929252
0.929252
0.934959
0.934959
0.934959
0.934959
0.934959
0.934959
0.934959
0.934959
0.931034
0.931034
0.931034
0.931034
0.934959
0.929252
0.929252
0.934959
0.934959
0.934959
0.934959
0.934959
0.929252
0.929252
0.929252
0.929252
0.934959
0.934959
0.931034
VECTORS node_normals float
-1 2.59638e-16 8.67389e-19
-0.961938 -0.273267 1.97787e-16
-0.961938 0.273267 -1.21448e-17
-0.951054 -0.1605 -0.264076
-0.951054 -0.1605 0.264076
-0.951054 0.1605 -0.264076
-0.951054 0.1605 0.264076
-0.862668 -0.433889 -0.259892
-0.862668 -0.433889 0.259892
-0.862668 0.433889 -0.259892
-0.862668 0.433889 0.259892
-0.850651 -0.525731 3.15726e-17
-0.85186 0 -0.52377
-0.85186 0 0.52377
-0.850651 0.525731 1.40515e-17
-0.809017 -0.309017 -0.5
-0.809017 -0.309017 0.5
-0.809017 0.309017 -0.5
-0.809017 0.309017 0.5
-0.702046 -0.69378 -0.160622
-0.702046 -0.69378 0.160622
-0.702046 0.69378 -0.160622
-0.702046 0.69378 0.160622
-0.69378 -0.160622 -0.702046
-0.69378 -0.160622 0.702046
-0.69378 0.160622 -0.702046
-0.69378 0.160622 0.702046
-0.686978 -0.587784 -0.427284
-0.686978 -0.587784 0.427284
-0.686978 0.587784 -0.427284
-0.686978 0.587784 0.427284
-0.587784 -0.427284 -0.686978
-0.587784 -0.427284 0.686978
-0.587784 0.427284 -0.686978
-0.587784 0.427284 0.686978
-0.52377 -0.85186 0
-0.525731 -8.38756e-17 -0.850651
-0.525731 6.80025e-17 0.850651
-0.52377 0.85186 0
-0.5 -0.809017 -0.309017
-0.5 -0.809017 0.309017
-0.5 0.809017 -0.309017
-0.5 0.809017 0.309017
-0.433889 -0.259892 -0.862668
-0.433889 -0.259892 0.862668
-0.433889 0.259892 -0.862668
-0.433889 0.259892 0.862668
-0.427284 -0.686978 -0.587784
-0.427284 -0.686978 0.587784
-0.427284 0.686978 -0.587784
-0.427284 0.686978 0.587784
-0.309017 -0.5 -0.809017
-0.309017 -0.5 0.809017
-0.309017 0.5 -0.809017
-0.309017 0.5 0.809017
-0.273267 -3.2444e-16 -0.961938
-0.273267 2.44632e-16 0.961938
-0.264076 -0.951054 -0.1605
-0.264076 -0.951054 0.1605
-0.264076 0.951054 -0.1605
-0.264076 0.951054 0.1605
-0.259892 -0.862668 -0.433889
-0.259892 -0.862668 0.433889
-0.259892 0.862668 -0.433889
-0.259892 0.862668 0.433889
-0.1605 -0.264076 -0.951054
-0.1605 -0.264076 0.951054
-0.1605 0.264076 -0.951054
-0.1605 0.264076 0.951054
-0.160622 -0.702046 -0.69378
-0.160622 -0.702046 0.69378
-0.160622 0.702046 -0.69378
-0.160622 0.702046 0.69378
1.34156e-16 -1 -2.59638e-16
-4.30274e-16 -0.961938 -0.273267
-1.97787e-16 -0.961938 0.273267
1.73476e-19 -0.850651 -0.525731
8.48297e-17 -0.850651 0.525731
0 -0.52377 -0.85186
0 -0.52377 0.85186
-2.60217e-16 2.8913e-19 -1
-2.59638e-16 -1.34156e-16 1
0 0.52377 -0.85186
0 0.52377 0.85186
7.11251e-18 0.850651 -0.525731
4.28485e-17 0.850651 0.525731
-9.02187e-17 0.961938 -0.273267
7.98089e-17 0.961938 0.273267
1.34156e-16 1 -5.78259e-19
0.160622 -0.702046 -0.69378
0.160622 -0.702046 0.69378
0.160622 0.702046 -0.69378
0.160622 0.702046 0.69378
0.1605 -0.264076 -0.951054
0.1605 -0.264076 0.951054
0.1605 0.264076 -0.951054
0.1605 0.264076 0.951054
0.259892 -0.862668 -0.433889
0.259892 -0.862668 0.433889
0.259892 0.862668 -0.433889
0.259892 0.862668 0.433889
0.264076 -0.951054 -0.1605
0.264076 -0.951054 0.1605
0.264076 0.951054 -0.1605
0.264076 0.951054 0.1605
0.273267 -5.72542e-17 -0.961938
0.273267 1.85642e-16 0.961938
0.309017 -0.5 -0.809017
0.309017 -0.5 0.809017
0.309017 0.5 -0.809017
0.309017 0.5 0.809017
0.427284 -0.686978 -0.587784
0.427284 -0.686978 0.587784
0.427284 0.686978 -0.587784
0.427284 0.686978 0.587784
0.433889 -0.259892 -0.862668
0.433889 -0.259892 0.862668
0.433889 0.259892 -0.862668
0.433889 0.259892 0.862668
0.5 -0.809017 -0.309017
0.5 -0.809017 0.309017
0.5 0.809017 -0.309017
0.5 0.809017 0.309017
0.52377 -0.85186 0
0.525731 -1.19698e-17 -0.850651
0.525731 1.4225e-17 0.850651
0.52377 0.85186 0
0.587784 -0.427284 -0.686978
0.587784 -0.427284 0.686978
0.587784 0.427284 -0.686978
0.587784 0.427284 0.686978
0.686978 -0.587784 -0.427284
0.686978 -0.587784 0.427284
0.686978 0.587784 -0.427284
0.686978 0.587784 0.427284
0.69378 -0.160622 -0.702046
0.69378 -0.160622 0.702046
0.69378 0.160622 -0.702046
0.69378 0.160622 0.702046
0.702046 -0.69378 -0.160622
0.702046 -0.69378 0.160622
0.702046 0.69378 -0.160622
0.702046 0.69378 0.160622
0.809017 -0.309017 -0.5
0.809017 -0.309017 0.5
0.809017 0.309017 -0.5
0.809017 0.309017 0.5
0.850651 -0.525731 0
0.85186 0 -0.52377
0.85186 0 0.52377
0.850651 0.525731 0
0.862668 -0.433889 -0.259892
0.862668 -0.433889 0.259892
0.862668 0.433889 -0.259892
0.862668 0.433889 0.259892
0.951054 -0.1605 -0.264076
0.951054 -0.1605 0.264076
0.951054 0.1605 -0.264076
0.951054 0.1605 0.264076
0.961938 -0.273267 -1.97787e-16
0.961938 0.273267 1.21448e-17
1 2.59638e-16 -5.78259e-19
