# vtk DataFile Version 3.0
Sphere Mesh with Geometry
ASCII
DATASET POLYDATA
POINTS 642 float
-1 0 0
-0.990439 -0.137952 0
-0.990439 0.137952 0
-0.987688 -0.0822425 -0.133071
-0.987688 -0.0822425 0.133071
-0.987688 0.0822425 -0.133071
-0.987688 0.0822425 0.133071
-0.966393 -0.220117 -0.132792
-0.966393 -0.220117 0.132792
-0.966393 0.220117 -0.132792
-0.966393 0.220117 0.132792
-0.963861 0 -0.266405
-0.963861 0 0.266405
-0.961938 -0.273267 0
-0.961938 0.273267 0
-0.951057 -0.16246 -0.262866
-0.951057 -0.16246 0.262866
-0.951057 0.16246 -0.262866
-0.951057 0.16246 0.262866
-0.924305 -0.358229 -0.131655
-0.924305 -0.358229 0.131655
-0.924305 0.358229 -0.131655
-0.924305 0.358229 0.131655
-0.916244 -0.301259 -0.264083
-0.916244 -0.301259 0.264083
-0.916244 0.301259 -0.264083
-0.916244 0.301259 0.264083
-0.915043 -0.403355 0
-0.915043 0.403355 0
-0.912982 -0.0823236 -0.399607
-0.912982 -0.0823236 0.399607
-0.912982 0.0823236 -0.399607
-0.912982 0.0823236 0.399607
-0.891007 -0.238677 -0.386187
-0.891007 -0.238677 0.386187
-0.891007 0.238677 -0.386187
-0.891007 0.238677 0.386187
-0.864929 -0.484442 -0.1312
-0.864929 -0.484442 0.1312
-0.864929 0.484442 -0.1312
-0.864929 0.484442 0.1312
-0.862668 -0.433889 -0.259892
-0.862668 -0.433889 0.259892
-0.862668 0.433889 -0.259892
-0.862668 0.433889 0.259892
-0.850651 -0.525731 0
-0.850651 0 -0.525731
-0.850651 0 0.525731
-0.850651 0.525731 0
-0.843911 -0.375039 -0.383614
-0.843911 -0.375039 0.383614
-0.843911 0.375039 -0.383614
-0.843911 0.375039 0.383614
-0.840178 -0.156434 -0.519258
-0.840178 -0.156434 0.519258
-0.840178 0.156434 -0.519258
-0.840178 0.156434 0.519258
-0.809017 -0.309017 -0.5
-0.809017 -0.309017 0.5
-0.809017 0.309017 -0.5
-0.809017 0.309017 0.5
-0.792649 -0.571252 -0.213023
-0.792649 -0.571252 0.213023
-0.792649 0.571252 -0.213023
-0.792649 0.571252 0.213023
-0.783843 -0.615642 -0.0810863
-0.783843 -0.615642 0.0810863
-0.783843 0.615642 -0.0810863
-0.783843 0.615642 0.0810863
-0.783452 -0.516122 -0.346153
-0.783452 -0.516122 0.346153
-0.783452 0.516122 -0.346153
-0.783452 0.516122 0.346153
-0.780204 -0.0811419 -0.62024
-0.780204 -0.0811419 0.62024
-0.780204 0.0811419 -0.62024
-0.780204 0.0811419 0.62024
-0.758652 -0.237086 -0.606825
-0.758652 -0.237086 0.606825
-0.758652 0.237086 -0.606825
-0.758652 0.237086 0.606825
-0.757935 -0.45399 -0.46843
-0.757935 -0.45399 0.46843
-0.757935 0.45399 -0.46843
-0.757935 0.45399 0.46843
-0.711282 -0.702907 0
-0.711282 0.702907 0
-0.707107 -0.371748 -0.601501
-0.707107 -0.371748 0.601501
-0.707107 0.371748 -0.601501
-0.707107 0.371748 0.601501
-0.702907 0 -0.711282
-0.702907 0 0.711282
-0.70231 -0.647412 -0.296005
-0.70231 -0.647412 0.296005
-0.70231 0.647412 -0.296005
-0.70231 0.647412 0.296005
-0.702046 -0.69378 -0.160622
-0.702046 -0.69378 0.160622
-0.702046 0.69378 -0.160622
-0.702046 0.69378 0.160622
-0.69378 -0.160622 -0.702046
-0.69378 -0.160622 0.702046
-0.69378 0.160622 -0.702046
-0.69378 0.160622 0.702046
-0.688191 -0.587785 -0.425325
-0.688191 -0.587785 0.425325
-0.688191 0.587785 -0.425325
-0.688191 0.587785 0.425325
-0.647412 -0.296005 -0.70231
-0.647412 -0.296005 0.70231
-0.647412 0.296005 -0.70231
-0.647412 0.296005 0.70231
-0.646578 -0.513375 -0.564254
-0.646578 -0.513375 0.564254
-0.646578 0.513375 -0.564254
-0.646578 0.513375 0.564254
-0.62024 -0.780204 -0.0811419
-0.62024 -0.780204 0.0811419
-0.62024 0.780204 -0.0811419
-0.62024 0.780204 0.0811419
-0.615642 -0.0810863 -0.783843
-0.615642 -0.0810863 0.783843
-0.615642 0.0810863 -0.783843
-0.615642 0.0810863 0.783843
-0.606825 -0.758652 -0.237086
-0.606825 -0.758652 0.237086
-0.606825 0.758652 -0.237086
-0.606825 0.758652 0.237086
-0.601501 -0.707107 -0.371748
-0.601501 -0.707107 0.371748
-0.601501 0.707107 -0.371748
-0.601501 0.707107 0.371748
-0.587785 -0.425325 -0.688191
-0.587785 -0.425325 0.688191
-0.587785 0.425325 -0.688191
-0.587785 0.425325 0.688191
-0.571252 -0.213023 -0.792649
-0.571252 -0.213023 0.792649
-0.571252 0.213023 -0.792649
-0.571252 0.213023 0.792649
-0.564254 -0.646578 -0.513375
-0.564254 -0.646578 0.513375
-0.564254 0.646578 -0.513375
-0.564254 0.646578 0.513375
-0.525731 -0.850651 0
-0.525731 0 -0.850651
-0.525731 0 0.850651
-0.525731 0.850651 0
-0.519258 -0.840178 -0.156434
-0.519258 -0.840178 0.156434
-0.519258 0.840178 -0.156434
-0.519258 0.840178 0.156434
-0.516122 -0.346153 -0.783452
-0.516122 -0.346153 0.783452
-0.516122 0.346153 -0.783452
-0.516122 0.346153 0.783452
-0.513375 -0.564254 -0.646578
-0.513375 -0.564254 0.646578
-0.513375 0.564254 -0.646578
-0.513375 0.564254 0.646578
-0.5 -0.809017 -0.309017
-0.5 -0.809017 0.309017
-0.5 0.809017 -0.309017
-0.5 0.809017 0.309017
-0.484442 -0.1312 -0.864929
-0.484442 -0.1312 0.864929
-0.484442 0.1312 -0.864929
-0.484442 0.1312 0.864929
-0.46843 -0.757935 -0.45399
-0.46843 -0.757935 0.45399
-0.46843 0.757935 -0.45399
-0.46843 0.757935 0.45399
-0.45399 -0.46843 -0.757935
-0.45399 -0.46843 0.757935
-0.45399 0.46843 -0.757935
-0.45399 0.46843 0.757935
-0.433889 -0.259892 -0.862668
-0.433889 -0.259892 0.862668
-0.433889 0.259892 -0.862668
-0.433889 0.259892 0.862668
-0.425325 -0.688191 -0.587785
-0.425325 -0.688191 0.587785
-0.425325 0.688191 -0.587785
-0.425325 0.688191 0.587785
-0.403355 0 -0.915043
-0.403355 0 0.915043
-0.399607 -0.912982 -0.0823236
-0.399607 -0.912982 0.0823236
-0.399607 0.912982 -0.0823236
-0.399607 0.912982 0.0823236
-0.386187 -0.891007 -0.238677
-0.386187 -0.891007 0.238677
-0.386187 0.891007 -0.238677
-0.386187 0.891007 0.238677
-0.383614 -0.843911 -0.375039
-0.383614 -0.843911 0.375039
-0.383614 0.843911 -0.375039
-0.383614 0.843911 0.375039
-0.375039 -0.383614 -0.843911
-0.375039 -0.383614 0.843911
-0.375039 0.383614 -0.843911
-0.375039 0.383614 0.843911
-0.371748 -0.601501 -0.707107
-0.371748 -0.601501 0.707107
-0.371748 0.601501 -0.707107
-0.371748 0.601501 0.707107
-0.358229 -0.131655 -0.924305
-0.358229 -0.131655 0.924305
-0.358229 0.131655 -0.924305
-0.358229 0.131655 0.924305
-0.346153 -0.783452 -0.516122
-0.346153 -0.783452 0.516122
-0.346153 0.783452 -0.516122
-0.346153 0.783452 0.516122
-0.309017 -0.5 -0.809017
-0.309017 -0.5 0.809017
-0.309017 0.5 -0.809017
-0.309017 0.5 0.809017
-0.301259 -0.264083 -0.916244
-0.301259 -0.264083 0.916244
-0.301259 0.264083 -0.916244
-0.301259 0.264083 0.916244
-0.296005 -0.70231 -0.647412
-0.296005 -0.70231 0.647412
-0.296005 0.70231 -0.647412
-0.296005 0.70231 0.647412
-0.273267 0 -0.961938
-0.273267 0 0.961938
-0.266405 -0.963861 0
-0.266405 0.963861 0
-0.264083 -0.916244 -0.301259
-0.264083 -0.916244 0.301259
-0.264083 0.916244 -0.301259
-0.264083 0.916244 0.301259
-0.262866 -0.951057 -0.16246
-0.262866 -0.951057 0.16246
-0.262866 0.951057 -0.16246
-0.262866 0.951057 0.16246
-0.259892 -0.862668 -0.433889
-0.259892 -0.862668 0.433889
-0.259892 0.862668 -0.433889
-0.259892 0.862668 0.433889
-0.238677 -0.386187 -0.891007
-0.238677 -0.386187 0.891007
-0.238677 0.386187 -0.891007
-0.238677 0.386187 0.891007
-0.237086 -0.606825 -0.758652
-0.237086 -0.606825 0.758652
-0.237086 0.606825 -0.758652
-0.237086 0.606825 0.758652
-0.220117 -0.132792 -0.966393
-0.220117 -0.132792 0.966393
-0.220117 0.132792 -0.966393
-0.220117 0.132792 0.966393
-0.213023 -0.792649 -0.571252
-0.213023 -0.792649 0.571252
-0.213023 0.792649 -0.571252
-0.213023 0.792649 0.571252
-0.16246 -0.262866 -0.951057
-0.16246 -0.262866 0.951057
-0.16246 0.262866 -0.951057
-0.16246 0.262866 0.951057
-0.160622 -0.702046 -0.69378
-0.160622 -0.702046 0.69378
-0.160622 0.702046 -0.69378
-0.160622 0.702046 0.69378
-0.156434 -0.519258 -0.840178
-0.156434 -0.519258 0.840178
-0.156434 0.519258 -0.840178
-0.156434 0.519258 0.840178
-0.137952 0 -0.990439
-0.137952 0 0.990439
-0.133071 -0.987688 -0.0822425
-0.133071 -0.987688 0.0822425
-0.133071 0.987688 -0.0822425
-0.133071 0.987688 0.0822425
-0.132792 -0.966393 -0.220117
-0.132792 -0.966393 0.220117
-0.132792 0.966393 -0.220117
-0.132792 0.966393 0.220117
-0.131655 -0.924305 -0.358229
-0.131655 -0.924305 0.358229
-0.131655 0.924305 -0.358229
-0.131655 0.924305 0.358229
-0.1312 -0.864929 -0.484442
-0.1312 -0.864929 0.484442
-0.1312 0.864929 -0.484442
-0.1312 0.864929 0.484442
-0.0823236 -0.399607 -0.912982
-0.0823236 -0.399607 0.912982
-0.0823236 0.399607 -0.912982
-0.0823236 0.399607 0.912982
-0.0822425 -0.133071 -0.987688
-0.0822425 -0.133071 0.987688
-0.0822425 0.133071 -0.987688
-0.0822425 0.133071 0.987688
-0.0811419 -0.62024 -0.780204
-0.0811419 -0.62024 0.780204
-0.0811419 0.62024 -0.780204
-0.0811419 0.62024 0.780204
-0.0810863 -0.783843 -0.615642
-0.0810863 -0.783843 0.615642
-0.0810863 0.783843 -0.615642
-0.0810863 0.783843 0.615642
0 -1 0
0 -0.990439 -0.137952
0 -0.990439 0.137952
0 -0.961938 -0.273267
0 -0.961938 0.273267
0 -0.915043 -0.403355
0 -0.915043 0.403355
0 -0.850651 -0.525731
0 -0.850651 0.525731
0 -0.711282 -0.702907
0 -0.711282 0.702907
0 -0.525731 -0.850651
0 -0.525731 0.850651
0 -0.266405 -0.963861
0 -0.266405 0.963861
0 0 -1
0 0 1
0 0.266405 -0.963861
0 0.266405 0.963861
0 0.525731 -0.850651
0 0.525731 0.850651
0 0.711282 -0.702907
0 0.711282 0.702907
0 0.850651 -0.525731
0 0.850651 0.525731
0 0.915043 -0.403355
0 0.915043 0.403355
0 0.961938 -0.273267
0 0.961938 0.273267
0 0.990439 -0.137952
0 0.990439 0.137952
0 1 0
0.0810863 -0.783843 -0.615642
0.0810863 -0.783843 0.615642
0.0810863 0.783843 -0.615642
0.0810863 0.783843 0.615642
0.0811419 -0.62024 -0.780204
0.0811419 -0.62024 0.780204
0.0811419 0.62024 -0.780204
0.0811419 0.62024 0.780204
0.0822425 -0.133071 -0.987688
0.0822425 -0.133071 0.987688
0.0822425 0.133071 -0.987688
0.0822425 0.133071 0.987688
0.0823236 -0.399607 -0.912982
0.0823236 -0.399607 0.912982
0.0823236 0.399607 -0.912982
0.0823236 0.399607 0.912982
0.1312 -0.864929 -0.484442
0.1312 -0.864929 0.484442
0.1312 0.864929 -0.484442
0.1312 0.864929 0.484442
0.131655 -0.924305 -0.358229
0.131655 -0.924305 0.358229
0.131655 0.924305 -0.358229
0.131655 0.924305 0.358229
0.132792 -0.966393 -0.220117
0.132792 -0.966393 0.220117
0.132792 0.966393 -0.220117
0.132792 0.966393 0.220117
[...]
CELL_DATA 320
VECTORS elem_normals float
-0.416879 0.0879193 0.9047
-0.147321 0.0889274 0.985083
-0.306124 0.345876 0.886937
-0.294295 0.176861 0.939207
0.147321 0.0889274 0.985083
0.416879 0.0879193 0.9047
0.306124 0.345876 0.886937
0.294295 0.176861 0.939207
-0.158803 0.584247 0.795888
0.158803 0.584247 0.795888
-0 0.762444 0.647055
-3.60703e-16 0.65304 0.757323
-3.92623e-17 0.178273 0.983981
0.159841 0.436901 0.885194
-0.159841 0.436901 0.885194
-3.7802e-17 0.356822 0.934172
-0.559135 0.142256 0.816781
-0.450012 0.400836 0.79801
-0.70696 0.302691 0.639207
-0.580462 0.286167 0.762346
-0.302691 0.639207 0.70696
-0.142256 0.816781 0.559135
-0.400836 0.79801 0.450012
-0.286167 0.762346 0.580462
-0.79801 0.450012 0.400836
-0.639207 0.70696 0.302691
-0.816781 0.559135 0.142256
-0.762346 0.580462 0.286167
-0.448293 0.54708 0.706921
-0.54708 0.706921 0.448293
-0.706921 0.448293 0.54708
-0.57735 0.57735 0.57735
-0.762444 0.647055 1.42399e-16
-0.584247 0.795888 0.158803
-0.584247 0.795888 -0.158803
-0.65304 0.757323 1.7626e-16
-0.345876 0.886937 0.306124
-0.0879193 0.9047 0.416879
-0.0889274 0.985083 0.147321
-0.176861 0.939207 0.294295
-0.345876 0.886937 -0.306124
-0.0889274 0.985083 -0.147321
-0.0879193 0.9047 -0.416879
-0.176861 0.939207 -0.294295
-0.436901 0.885194 0.159841
-0.178273 0.983981 -4.42372e-17
-0.436901 0.885194 -0.159841
-0.356822 0.934172 0
0.0879193 0.9047 0.416879
0.345876 0.886937 0.306124
0.0889274 0.985083 0.147321
0.176861 0.939207 0.294295
0.584247 0.795888 0.158803
0.762444 0.647055 4.01606e-16
0.584247 0.795888 -0.158803
0.65304 0.757323 0
0.0889274 0.985083 -0.147321
0.345876 0.886937 -0.306124
0.0879193 0.9047 -0.416879
0.176861 0.939207 -0.294295
0.436901 0.885194 0.159841
0.436901 0.885194 -0.159841
0.178273 0.983981 0
0.356822 0.934172 -5.21848e-16
0.142256 0.816781 0.559135
0.302691 0.639207 0.70696
0.400836 0.79801 0.450012
0.286167 0.762346 0.580462
0.450012 0.400836 0.79801
0.559135 0.142256 0.816781
0.70696 0.302691 0.639207
0.580462 0.286167 0.762346
0.639207 0.70696 0.302691
0.79801 0.450012 0.400836
0.816781 0.559135 0.142256
0.762346 0.580462 0.286167
0.448293 0.54708 0.706921
0.706921 0.448293 0.54708
0.54708 0.706921 0.448293
0.57735 0.57735 0.57735
0.9047 0.416879 0.0879193
0.886937 0.306124 0.345876
0.985083 0.147321 0.0889274
0.939207 0.294295 0.176861
0.795888 0.158803 0.584247
0.647055 4.01606e-16 0.762444
0.795888 -0.158803 0.584247
0.757323 0 0.65304
0.985083 -0.147321 0.0889274
0.886937 -0.306124 0.345876
0.9047 -0.416879 0.0879193
0.939207 -0.294295 0.176861
0.885194 0.159841 0.436901
0.885194 -0.159841 0.436901
0.983981 0 0.178273
0.934172 -5.21848e-16 0.356822
0.9047 0.416879 -0.0879193
0.985083 0.147321 -0.0889274
0.886937 0.306124 -0.345876
0.939207 0.294295 -0.176861
0.985083 -0.147321 -0.0889274
0.9047 -0.416879 -0.0879193
0.886937 -0.306124 -0.345876
0.939207 -0.294295 -0.176861
0.795888 0.158803 -0.584247
0.795888 -0.158803 -0.584247
0.647055 0 -0.762444
0.757323 1.35264e-16 -0.65304
0.983981 3.92623e-17 -0.178273
0.885194 -0.159841 -0.436901
0.885194 0.159841 -0.436901
0.934172 3.7802e-17 -0.356822
0.142256 0.816781 -0.559135
0.400836 0.79801 -0.450012
0.302691 0.639207 -0.70696
0.286167 0.762346 -0.580462
0.639207 0.70696 -0.302691
0.816781 0.559135 -0.142256
0.79801 0.450012 -0.400836
0.762346 0.580462 -0.286167
0.450012 0.400836 -0.79801
0.70696 0.302691 -0.639207
0.559135 0.142256 -0.816781
0.580462 0.286167 -0.762346
0.54708 0.706921 -0.448293
0.706921 0.448293 -0.54708
0.448293 0.54708 -0.706921
0.57735 0.57735 -0.57735
-4.74663e-17 0.762444 -0.647055
0.158803 0.584247 -0.795888
-0.158803 0.584247 -0.795888
1.7626e-16 0.65304 -0.757323
0.306124 0.345876 -0.886937
0.416879 0.0879193 -0.9047
0.147321 0.0889274 -0.985083
0.294295 0.176861 -0.939207
-0.306124 0.345876 -0.886937
-0.147321 0.0889274 -0.985083
-0.416879 0.0879193 -0.9047
-0.294295 0.176861 -0.939207
0.159841 0.436901 -0.885194
-4.42372e-17 0.178273 -0.983981
-0.159841 0.436901 -0.885194
0 0.356822 -0.934172
-0.416879 -0.0879193 -0.9047
-0.147321 -0.0889274 -0.985083
-0.306124 -0.345876 -0.886937
-0.294295 -0.176861 -0.939207
0.147321 -0.0889274 -0.985083
0.416879 -0.0879193 -0.9047
0.306124 -0.345876 -0.886937
0.294295 -0.176861 -0.939207
-0.158803 -0.584247 -0.795888
0.158803 -0.584247 -0.795888
0 -0.762444 -0.647055
-3.60703e-16 -0.65304 -0.757323
-3.92623e-17 -0.178273 -0.983981
0.159841 -0.436901 -0.885194
-0.159841 -0.436901 -0.885194
-3.7802e-17 -0.356822 -0.934172
0.142256 -0.816781 -0.559135
0.302691 -0.639207 -0.70696
0.400836 -0.79801 -0.450012
0.286167 -0.762346 -0.580462
0.450012 -0.400836 -0.79801
0.559135 -0.142256 -0.816781
0.70696 -0.302691 -0.639207
0.580462 -0.286167 -0.762346
0.639207 -0.70696 -0.302691
0.79801 -0.450012 -0.400836
0.816781 -0.559135 -0.142256
0.762346 -0.580462 -0.286167
0.448293 -0.54708 -0.706921
0.706921 -0.448293 -0.54708
0.54708 -0.706921 -0.448293
0.57735 -0.57735 -0.57735
0.0879193 -0.9047 -0.416879
0.345876 -0.886937 -0.306124
0.0889274 -0.985083 -0.147321
0.176861 -0.939207 -0.294295
0.584247 -0.795888 -0.158803
0.762444 -0.647055 -4.01606e-16
0.584247 -0.795888 0.158803
0.65304 -0.757323 0
0.0889274 -0.985083 0.147321
0.345876 -0.886937 0.306124
0.0879193 -0.9047 0.416879
0.176861 -0.939207 0.294295
0.436901 -0.885194 -0.159841
0.436901 -0.885194 0.159841
0.178273 -0.983981 0
0.356822 -0.934172 5.21848e-16
-0.0879193 -0.9047 -0.416879
-0.0889274 -0.985083 -0.147321
-0.345876 -0.886937 -0.306124
-0.176861 -0.939207 -0.294295
-0.0889274 -0.985083 0.147321
-0.0879193 -0.9047 0.416879
-0.345876 -0.886937 0.306124
-0.176861 -0.939207 0.294295
-0.584247 -0.795888 -0.158803
-0.584247 -0.795888 0.158803
-0.762444 -0.647055 0
-0.65304 -0.757323 -1.35264e-16
-0.178273 -0.983981 -3.92623e-17
-0.436901 -0.885194 0.159841
-0.436901 -0.885194 -0.159841
-0.356822 -0.934172 -3.7802e-17
-0.816781 -0.559135 0.142256
-0.639207 -0.70696 0.302691
-0.79801 -0.450012 0.400836
-0.762346 -0.580462 0.286167
-0.400836 -0.79801 0.450012
-0.142256 -0.816781 0.559135
-0.302691 -0.639207 0.70696
-0.286167 -0.762346 0.580462
-0.70696 -0.302691 0.639207
-0.450012 -0.400836 0.79801
-0.559135 -0.142256 0.816781
-0.580462 -0.286167 0.762346
-0.54708 -0.706921 0.448293
-0.448293 -0.54708 0.706921
-0.706921 -0.448293 0.54708
-0.57735 -0.57735 0.57735
-0.416879 -0.0879193 0.9047
-0.306124 -0.345876 0.886937
-0.147321 -0.0889274 0.985083
-0.294295 -0.176861 0.939207
-0.158803 -0.584247 0.795888
-1.79413e-16 -0.762444 0.647055
0.158803 -0.584247 0.795888
0 -0.65304 0.757323
0.147321 -0.0889274 0.985083
0.306124 -0.345876 0.886937
0.416879 -0.0879193 0.9047
0.294295 -0.176861 0.939207
-0.159841 -0.436901 0.885194
0.159841 -0.436901 0.885194
0 -0.178273 0.983981
-1.86374e-16 -0.356822 0.934172
0.142256 -0.816781 0.559135
0.400836 -0.79801 0.450012
0.302691 -0.639207 0.70696
0.286167 -0.762346 0.580462
0.639207 -0.70696 0.302691
0.816781 -0.559135 0.142256
0.79801 -0.450012 0.400836
0.762346 -0.580462 0.286167
0.450012 -0.400836 0.79801
0.70696 -0.302691 0.639207
0.559135 -0.142256 0.816781
0.580462 -0.286167 0.762346
0.54708 -0.706921 0.448293
0.706921 -0.448293 0.54708
0.448293 -0.54708 0.706921
0.57735 -0.57735 0.57735
-0.9047 0.416879 0.0879193
-0.985083 0.147321 0.0889274
-0.886937 0.306124 0.345876
-0.939207 0.294295 0.176861
-0.985083 -0.147321 0.0889274
-0.9047 -0.416879 0.0879193
-0.886937 -0.306124 0.345876
-0.939207 -0.294295 0.176861
-0.795888 0.158803 0.584247
-0.795888 -0.158803 0.584247
-0.647055 0 0.762444
-0.757323 1.35264e-16 0.65304
-0.983981 3.92623e-17 0.178273
-0.885194 -0.159841 0.436901
-0.885194 0.159841 0.436901
-0.934172 3.7802e-17 0.356822
-0.9047 0.416879 -0.0879193
-0.886937 0.306124 -0.345876
-0.985083 0.147321 -0.0889274
-0.939207 0.294295 -0.176861
-0.795888 0.158803 -0.584247
-0.647055 4.01606e-16 -0.762444
-0.795888 -0.158803 -0.584247
-0.757323 -0 -0.65304
-0.985083 -0.147321 -0.0889274
-0.886937 -0.306124 -0.345876
-0.9047 -0.416879 -0.0879193
-0.939207 -0.294295 -0.176861
-0.885194 0.159841 -0.436901
-0.885194 -0.159841 -0.436901
-0.983981 -0 -0.178273
-0.934172 -5.21848e-16 -0.356822
-0.816781 0.559135 -0.142256
-0.639207 0.70696 -0.302691
-0.79801 0.450012 -0.400836
-0.762346 0.580462 -0.286167
-0.400836 0.79801 -0.450012
-0.142256 0.816781 -0.559135
-0.302691 0.639207 -0.70696
-0.286167 0.762346 -0.580462
-0.70696 0.302691 -0.639207
-0.450012 0.400836 -0.79801
-0.559135 0.142256 -0.816781
-0.580462 0.286167 -0.762346
-0.54708 0.706921 -0.448293
-0.448293 0.54708 -0.706921
-0.706921 0.448293 -0.54708
-0.57735 0.57735 -0.57735
-0.142256 -0.816781 -0.559135
-0.400836 -0.79801 -0.450012
-0.302691 -0.639207 -0.70696
-0.286167 -0.762346 -0.580462
-0.639207 -0.70696 -0.302691
-0.816781 -0.559135 -0.142256
-0.79801 -0.450012 -0.400836
-0.762346 -0.580462 -0.286167
-0.450012 -0.400836 -0.79801
-0.70696 -0.302691 -0.639207
-0.559135 -0.142256 -0.816781
-0.580462 -0.286167 -0.762346
-0.54708 -0.706921 -0.448293
-0.706921 -0.448293 -0.54708
-0.448293 -0.54708 -0.706921
-0.57735 -0.57735 -0.57735
SCALARS curvature float 1
LOOKUP_TABLE default
0.982469
0.982467
0.982467
0.981743
0.982467
0.982469
0.982467
0.981743
0.982467
0.982467
0.982469
0.981743
0.979368
0.979368
0.979368
0.978331
0.982469
0.982467
0.982467
0.981743
0.982467
0.982469
0.982467
0.981743
0.982467
0.982467
0.982469
0.981743
0.979368
0.979368
0.979368
0.978331
0.982469
0.982467
0.982467
0.981743
0.982467
0.982469
0.982467
0.981743
0.982467
0.982467
0.982469
0.981743
0.979368
0.979368
0.979368
0.978331
0.982469
0.982467
0.982467
0.981743
0.982467
0.982469
0.982467
0.981743
0.982467
0.982467
0.982469
0.981743
0.979368
0.979368
0.979368
0.978331
0.982469
0.982467
0.982467
0.981743
0.982467
0.982469
0.982467
0.981743
0.982467
0.982467
0.982469
0.981743
0.979368
0.979368
0.979368
0.978331
0.982469
0.982467
0.982467
0.981743
0.982467
0.982469
0.982467
0.981743
0.982467
0.982467
0.982469
0.981743
0.979368
0.979368
0.979368
0.978331
0.982469
0.982467
0.982467
0.981743
0.982467
0.982469
0.982467
0.981743
0.982467
0.982467
0.982469
0.981743
0.979368
0.979368
0.979368
0.978331
0.982469
0.982467
0.982467
0.981743
0.982467
0.982469
0.982467
0.981743
0.982467
0.982467
0.982469
0.981743
0.979368
0.979368
0.979368
0.978331
0.982469
0.982467
0.982467
0.981743
0.982467
0.982469
0.982467
0.981743
0.982467
0.982467
0.982469
0.981743
0.979368
0.979368
0.979368
0.978331
0.982469
0.982467
0.982467
0.981743
0.982467
0.982469
0.982467
0.981743
0.982467
0.982467
0.982469
0.981743
0.979368
0.979368
0.979368
0.978331
0.982469
0.982467
0.982467
0.981743
0.982467
0.982469
0.982467
0.981743
0.982467
0.982467
0.982469
0.981743
0.979368
0.979368
0.979368
0.978331
0.982469
0.982467
0.982467
0.981743
0.982467
0.982469
0.982467
0.981743
0.982467
0.982467
0.982469
0.981743
0.979368
0.979368
0.979368
0.978331
0.982469
0.982467
0.982467
0.981743
0.982467
0.982469
0.982467
0.981743
0.982467
0.982467
0.982469
0.981743
0.979368
0.979368
0.979368
0.978331
0.982469
0.982467
0.982467
0.981743
0.982467
0.982469
0.982467
0.981743
0.982467
0.982467
0.982469
0.981743
0.979368
0.979368
0.979368
0.978331
0.982469
0.982467
0.982467
0.981743
0.982467
0.982469
0.982467
0.981743
0.982467
0.982467
0.982469
0.981743
0.979368
0.979368
0.979368
0.978331
0.982469
0.982467
0.982467
0.981743
0.982467
0.982469
0.982467
0.981743
0.982467
0.982467
0.982469
0.981743
0.979368
0.979368
0.979368
0.978331
0.982469
0.982467
0.982467
0.981743
0.982467
0.982469
0.982467
0.981743
0.982467
0.982467
0.982469
0.981743
0.979368
0.979368
0.979368
0.978331
0.982469
0.982467
0.982467
0.981743
0.982467
0.982469
0.982467
0.981743
0.982467
0.982467
0.982469
0.981743
0.979368
0.979368
0.979368
0.978331
0.982469
0.982467
0.982467
0.981743
0.982467
0.982469
0.982467
0.981743
0.982467
0.982467
0.982469
0.981743
0.979368
0.979368
0.979368
0.978331
0.982469
0.982467
0.982467
0.981743
0.982467
0.982469
0.982467
0.981743
0.982467
0.982467
0.982469
0.981743
0.979368
0.979368
0.979368
0.978331
POINT_DATA 642
SCALARS node_curvature float 1
LOOKUP_TABLE default
0.981307
0.982467
0.982467
0.980779
0.980779
0.980779
0.980779
0.982098
0.982098
0.982098
0.982098
0.978836
0.978836
0.982219
0.982219
0.980468
0.980468
0.980468
0.980468
0.982097
0.982097
0.982097
0.982097
0.982098
0.982098
0.982098
0.982098
0.982469
0.982469
0.978836
0.978836
0.978836
0.978836
0.980779
0.980779
0.980779
0.980779
0.982469
0.982469
0.982469
0.982469
0.982219
0.982219
0.982219
0.982219
0.982469
0.980468
0.980468
0.982469
0.982467
0.982467
0.982467
0.982467
0.980779
0.980779
0.980779
0.980779
0.981307
0.981307
0.981307
0.981307
0.982097
0.982097
0.982097
0.982097
0.982469
0.982469
0.982469
0.982469
0.982098
0.982098
0.982098
0.982098
0.982098
0.982098
0.982098
0.982098
0.982467
0.982467
0.982467
0.982467
0.980779
0.980779
0.980779
0.980779
0.982097
0.982097
0.980779
0.980779
0.980779
0.980779
0.982097
0.982097
0.982098
0.982098
0.982098
0.982098
0.982219
0.982219
0.982219
0.982219
0.982219
0.982219
0.982219
0.982219
0.980468
0.980468
0.980468
0.980468
0.982098
0.982098
0.982098
0.982098
0.978836
0.978836
0.978836
0.978836
0.982098
0.982098
0.982098
0.982098
0.982469
0.982469
0.982469
0.982469
0.982467
0.982467
0.982467
0.982467
0.980779
0.980779
0.980779
0.980779
0.980468
0.980468
0.980468
0.980468
0.982097
0.982097
0.982097
0.982097
0.978836
0.978836
0.978836
0.978836
0.980468
0.982469
0.982469
0.980468
0.980779
0.980779
0.980779
0.980779
0.982098
0.982098
0.982098
0.982098
0.978836
0.978836
0.978836
0.978836
0.981307
0.981307
0.981307
0.981307
0.982469
0.982469
0.982469
0.982469
0.980779
0.980779
0.980779
0.980779
0.980779
0.980779
0.980779
0.980779
0.982219
0.982219
0.982219
0.982219
0.980468
0.980468
0.980468
0.980468
0.982469
0.982469
0.978836
0.978836
0.978836
0.978836
0.980779
0.980779
0.980779
0.980779
0.982467
0.982467
0.982467
0.982467
0.982467
0.982467
0.982467
0.982467
0.980779
0.980779
0.980779
0.980779
0.982097
0.982097
0.982097
0.982097
0.982098
0.982098
0.982098
0.982098
0.981307
0.981307
0.981307
0.981307
0.982098
0.982098
0.982098
0.982098
0.982098
0.982098
0.982098
0.982098
0.982219
0.982219
0.978836
0.978836
0.982098
0.982098
0.982098
0.982098
0.980468
0.980468
0.980468
0.980468
0.982219
0.982219
0.982219
0.982219
0.980779
0.980779
0.980779
0.980779
0.982467
0.982467
0.982467
0.982467
0.982098
0.982098
0.982098
0.982098
0.982097
0.982097
0.982097
0.982097
0.980468
0.980468
0.980468
0.980468
0.982219
0.982219
0.982219
0.982219
0.980779
0.980779
0.980779
0.980779
0.982467
0.982467
0.980779
0.980779
0.980779
0.980779
0.982098
0.982098
0.982098
0.982098
0.982097
0.982097
0.982097
0.982097
0.982469
0.982469
0.982469
0.982469
0.978836
0.978836
0.978836
0.978836
0.980779
0.980779
0.980779
0.980779
0.982098
0.982098
0.982098
0.982098
0.982469
0.982469
0.982469
0.982469
0.981307
0.982467
0.982467
0.982219
0.982219
0.982469
0.982469
0.982469
0.982469
0.982097
0.982097
0.980468
0.980468
0.978836
0.978836
0.981307
0.981307
0.978836
0.978836
0.980468
0.980468
0.982097
0.982097
0.982469
0.982469
0.982469
0.982469
0.982219
0.982219
0.982467
0.982467
0.981307
0.982469
0.982469
0.982469
0.982469
0.982098
0.982098
0.982098
0.982098
0.980779
0.980779
0.980779
0.980779
0.978836
0.978836
0.978836
0.978836
0.982469
0.982469
0.982469
0.982469
0.982097
0.982097
0.982097
0.982097
0.982098
0.982098
0.982098
0.982098
0.980779
0.980779
0.980779
0.980779
0.982467
0.982467
0.980779
0.980779
0.980779
0.980779
0.982219
0.982219
0.982219
0.982219
0.980468
0.980468
0.980468
0.980468
0.982097
0.982097
0.982097
0.982097
0.982098
0.982098
0.982098
0.982098
0.982467
0.982467
0.982467
0.982467
0.980779
0.980779
0.980779
0.980779
0.982219
0.982219
0.982219
0.982219
0.980468
0.980468
0.980468
0.980468
0.982098
0.982098
0.982098
0.982098
0.978836
0.978836
0.982219
0.982219
0.982098
0.982098
0.982098
0.982098
0.982098
0.982098
0.982098
0.982098
0.981307
0.981307
0.981307
0.981307
0.982098
0.982098
0.982098
0.982098
0.982097
0.982097
0.982097
0.982097
0.980779
0.980779
0.980779
0.980779
0.982467
0.982467
0.982467
0.982467
0.982467
0.982467
0.982467
0.982467
0.980779
0.980779
0.980779
0.980779
0.978836
0.978836
0.978836
0.978836
0.982469
0.982469
0.980468
0.980468
0.980468
0.980468
0.982219
0.982219
0.982219
0.982219
0.980779
0.980779
0.980779
0.980779
0.980779
0.980779
0.980779
0.980779
0.982469
0.982469
0.982469
0.982469
0.981307
0.981307
0.981307
0.981307
0.978836
0.978836
0.978836
0.978836
0.982098
0.982098
0.982098
0.982098
0.980779
0.980779
0.980779
0.980779
0.980468
0.982469
0.982469
0.980468
0.978836
0.978836
0.978836
0.978836
0.982097
0.982097
0.982097
0.982097
0.980468
0.980468
0.980468
0.980468
0.980779
0.980779
0.980779
0.980779
0.982467
0.982467
0.982467
0.982467
0.982469
0.982469
0.982469
0.982469
0.982098
0.982098
0.982098
0.982098
0.978836
0.978836
0.978836
0.978836
0.982098
0.982098
0.982098
0.982098
0.980468
0.980468
0.980468
0.980468
0.982219
0.982219
0.982219
0.982219
0.982219
0.982219
0.982219
0.982219
0.982098
0.982098
0.982098
0.982098
0.982097
0.982097
0.980779
0.980779
0.980779
0.980779
0.982097
0.982097
0.980779
0.980779
0.980779
0.980779
0.982467
0.982467
0.982467
0.982467
0.982098
0.982098
0.982098
0.982098
0.982098
0.982098
0.982098
0.982098
0.982469
0.982469
0.982469
0.982469
0.982097
0.982097
0.982097
0.982097
0.981307
0.981307
0.981307
0.981307
0.980779
0.980779
0.980779
0.980779
0.982467
0.982467
0.982467
0.982467
0.982469
0.980468
0.980468
0.982469
0.982219
0.982219
0.982219
0.982219
0.982469
0.982469
0.982469
0.982469
0.980779
0.980779
0.980779
0.980779
0.978836
0.978836
0.978836
0.978836
0.982469
0.982469
0.982098
0.982098
0.982098
0.982098
0.982097
0.982097
0.982097
0.982097
0.980468
0.980468
0.980468
0.980468
0.982219
0.982219
0.978836
0.978836
0.982098
0.982098
0.982098
0.982098
0.980779
0.980779
0.980779
0.980779
0.982467
0.982467
0.981307
VECTORS node_normals float
-1 -1.807e-19 -2.74665e-16
-0.990439 -0.137952 6.50523e-18
-0.990439 0.137952 8.18575e-16
-0.987688 -0.0819821 -0.133232
-0.987688 -0.0819821 0.133232
-0.987688 0.0819821 -0.133232
-0.987688 0.0819821 0.133232
-0.966376 -0.220176 -0.132817
-0.966376 -0.220176 0.132817
-0.966376 0.220176 -0.132817
-0.966376 0.220176 0.132817
-0.963833 -3.71201e-17 -0.266507
-0.963833 0 0.266507
-0.961898 -0.273408 2.80664e-16
-0.961898 0.273408 4.99456e-17
-0.951056 -0.162279 -0.262977
-0.951056 -0.162279 0.262977
-0.951056 0.162279 -0.262977
-0.951056 0.162279 0.262977
-0.924321 -0.35817 -0.131698
-0.924321 -0.35817 0.131698
-0.924321 0.35817 -0.131698
-0.924321 0.35817 0.131698
-0.916261 -0.301264 -0.264019
-0.916261 -0.301264 0.264019
-0.916261 0.301264 -0.264019
-0.916261 0.301264 0.264019
-0.915043 -0.403355 -9.45427e-17
-0.915043 0.403355 -4.61221e-16
-0.913011 -0.0822316 -0.399561
-0.913011 -0.0822316 0.399561
-0.913011 0.0822316 -0.399561
-0.913011 0.0822316 0.399561
-0.891006 -0.238417 -0.386348
-0.891006 -0.238417 0.386348
-0.891006 0.238417 -0.386348
-0.891006 0.238417 0.386348
-0.864929 -0.484442 -0.1312
-0.864929 -0.484442 0.1312
-0.864929 0.484442 -0.1312
-0.864929 0.484442 0.1312
-0.86268 -0.433947 -0.259757
-0.86268 -0.433947 0.259757
-0.86268 0.433947 -0.259757
-0.86268 0.433947 0.259757
-0.850651 -0.525731 8.95334e-17
-0.850763 -3.61401e-20 -0.52555
-0.850763 6.43474e-17 0.52555
-0.850651 0.525731 3.25694e-17
-0.843911 -0.375039 -0.383614
-0.843911 -0.375039 0.383614
-0.843911 0.375039 -0.383614
-0.843911 0.375039 0.383614
-0.840339 -0.156434 -0.518998
-0.840339 -0.156434 0.518998
-0.840339 0.156434 -0.518998
-0.840339 0.156434 0.518998
-0.809017 -0.309017 -0.5
-0.809017 -0.309017 0.5
-0.809017 0.309017 -0.5
-0.809017 0.309017 0.5
-0.792623 -0.571262 -0.213092
-0.792623 -0.571262 0.213092
-0.792623 0.571262 -0.213092
-0.792623 0.571262 0.213092
-0.783843 -0.615642 -0.0810863
-0.783843 -0.615642 0.0810863
-0.783843 0.615642 -0.0810863
-0.783843 0.615642 0.0810863
-0.783444 -0.516165 -0.346105
-0.783444 -0.516165 0.346105
-0.783444 0.516165 -0.346105
-0.783444 0.516165 0.346105
-0.780185 -0.0810879 -0.620271
-0.780185 -0.0810879 0.620271